#            ENERGY              s1              s2              total
        -30.30000000        0.00000000        0.00000000        0.00000000
        -30.23933934        0.00000003        0.00000003        0.00000006
        -30.17867868        0.00000709        0.00000629        0.00001338
        -30.11801802        0.00014357        0.00013173        0.00027531
        -30.05735736        0.00145565        0.00137765        0.00283330
        -29.99669670        0.00752275        0.00731376        0.01483651
        -29.93603604        0.02076456        0.02061109        0.04137565
        -29.87537538        0.03419575        0.03434798        0.06854374
        -29.81471471        0.04123646        0.04146347        0.08269993
        -29.75405405        0.04589473        0.04592134        0.09181607
        -29.69339339        0.05276068        0.05265052        0.10541120
        -29.63273273        0.05580705        0.05575105        0.11155809
        -29.57207207        0.05175942        0.05176098        0.10352040
        -29.51141141        0.05516437        0.05502463        0.11018900
        -29.45075075        0.06568559        0.06544680        0.13113239
        -29.39009009        0.06303869        0.06309854        0.12613722
        -29.32942943        0.04206219        0.04239313        0.08445532
        -29.26876877        0.02219569        0.02241832        0.04461401
        -29.20810811        0.01537924        0.01545655        0.03083579
        -29.14744745        0.01718914        0.01722289        0.03441204
        -29.08678679        0.01936330        0.01937207        0.03873536
        -29.02612613        0.01489702        0.01488272        0.02977974
        -28.96546547        0.00724761        0.00723299        0.01448061
        -28.90480480        0.00306033        0.00305529        0.00611561
        -28.84414414        0.00148585        0.00148484        0.00297070
        -28.78348348        0.00051908        0.00051880        0.00103789
        -28.72282282        0.00009429        0.00009422        0.00018851
        -28.66216216        0.00000831        0.00000830        0.00001660
        -28.60150150        0.00000035        0.00000035        0.00000070
        -28.54084084        0.00000000        0.00000000        0.00000000
        -28.48018018        0.00000000        0.00000000        0.00000000
        -28.41951952        0.00000000        0.00000000        0.00000000
        -28.35885886        0.00000000        0.00000000        0.00000000
        -28.29819820        0.00000000        0.00000000        0.00000000
        -28.23753754        0.00000000        0.00000000        0.00000000
        -28.17687688        0.00000000        0.00000000        0.00000000
        -28.11621622        0.00000000        0.00000000        0.00000000
        -28.05555556        0.00000000        0.00000000        0.00000000
        -27.99489489        0.00000000        0.00000000        0.00000000
        -27.93423423        0.00000000        0.00000000        0.00000000
        -27.87357357        0.00000000        0.00000000        0.00000000
        -27.81291291        0.00000000        0.00000000        0.00000000
        -27.75225225        0.00000000        0.00000000        0.00000000
        -27.69159159        0.00000000        0.00000000        0.00000000
        -27.63093093        0.00000000        0.00000000        0.00000000
        -27.57027027        0.00000000        0.00000000        0.00000000
        -27.50960961        0.00000000        0.00000000        0.00000000
        -27.44894895        0.00000000        0.00000000        0.00000000
        -27.38828829        0.00000000        0.00000000        0.00000000
        -27.32762763        0.00000000        0.00000000        0.00000000
        -27.26696697        0.00000000        0.00000000        0.00000000
        -27.20630631        0.00000000        0.00000000        0.00000000
        -27.14564565        0.00000000        0.00000000        0.00000000
        -27.08498498        0.00000000        0.00000000        0.00000000
        -27.02432432        0.00000000        0.00000000        0.00000000
        -26.96366366        0.00000000        0.00000000        0.00000000
        -26.90300300        0.00000000        0.00000000        0.00000000
        -26.84234234        0.00000000        0.00000000        0.00000000
        -26.78168168        0.00000000        0.00000000        0.00000000
        -26.72102102        0.00000000        0.00000000        0.00000000
        -26.66036036        0.00000000        0.00000000        0.00000000
        -26.59969970        0.00000000        0.00000000        0.00000000
        -26.53903904        0.00000000        0.00000000        0.00000000
        -26.47837838        0.00000000        0.00000000        0.00000000
        -26.41771772        0.00000000        0.00000000        0.00000000
        -26.35705706        0.00000000        0.00000000        0.00000000
        -26.29639640        0.00000000        0.00000000        0.00000000
        -26.23573574        0.00000000        0.00000000        0.00000000
        -26.17507508        0.00000000        0.00000000        0.00000000
        -26.11441441        0.00000000        0.00000000        0.00000000
        -26.05375375        0.00000000        0.00000000        0.00000000
        -25.99309309        0.00000000        0.00000000        0.00000000
        -25.93243243        0.00000000        0.00000000        0.00000000
        -25.87177177        0.00000000        0.00000000        0.00000000
        -25.81111111        0.00000000        0.00000000        0.00000000
        -25.75045045        0.00000000        0.00000000        0.00000000
        -25.68978979        0.00000000        0.00000000        0.00000000
        -25.62912913        0.00000000        0.00000000        0.00000000
        -25.56846847        0.00000000        0.00000000        0.00000000
        -25.50780781        0.00000000        0.00000000        0.00000000
        -25.44714715        0.00000000        0.00000000        0.00000000
        -25.38648649        0.00000000        0.00000000        0.00000000
        -25.32582583        0.00000000        0.00000000        0.00000000
        -25.26516517        0.00000000        0.00000000        0.00000000
        -25.20450450        0.00000000        0.00000000        0.00000000
        -25.14384384        0.00000000        0.00000000        0.00000000
        -25.08318318        0.00000000        0.00000000        0.00000000
        -25.02252252        0.00000000        0.00000000        0.00000000
        -24.96186186        0.00000000        0.00000000        0.00000000
        -24.90120120        0.00000000        0.00000000        0.00000000
        -24.84054054        0.00000000        0.00000000        0.00000000
        -24.77987988        0.00000000        0.00000000        0.00000000
        -24.71921922        0.00000000        0.00000000        0.00000000
        -24.65855856        0.00000000        0.00000000        0.00000000
        -24.59789790        0.00000000        0.00000000        0.00000000
        -24.53723724        0.00000000        0.00000000        0.00000000
        -24.47657658        0.00000000        0.00000000        0.00000000
        -24.41591592        0.00000000        0.00000000        0.00000000
        -24.35525526        0.00000000        0.00000000        0.00000000
        -24.29459459        0.00000000        0.00000000        0.00000000
        -24.23393393        0.00000000        0.00000000        0.00000000
        -24.17327327        0.00000000        0.00000000        0.00000000
        -24.11261261        0.00000000        0.00000000        0.00000000
        -24.05195195        0.00000000        0.00000000        0.00000000
        -23.99129129        0.00000000        0.00000000        0.00000000
        -23.93063063        0.00000000        0.00000000        0.00000000
        -23.86996997        0.00000000        0.00000000        0.00000000
        -23.80930931        0.00000000        0.00000000        0.00000000
        -23.74864865        0.00000000        0.00000000        0.00000000
        -23.68798799        0.00000000        0.00000000        0.00000000
        -23.62732733        0.00000000        0.00000000        0.00000000
        -23.56666667        0.00000000        0.00000000        0.00000000
        -23.50600601        0.00000000        0.00000000        0.00000000
        -23.44534535        0.00000000        0.00000000        0.00000000
        -23.38468468        0.00000000        0.00000000        0.00000000
        -23.32402402        0.00000000        0.00000000        0.00000000
        -23.26336336        0.00000000        0.00000000        0.00000000
        -23.20270270        0.00000000        0.00000000        0.00000000
        -23.14204204        0.00000000        0.00000000        0.00000000
        -23.08138138        0.00000000        0.00000000        0.00000000
        -23.02072072        0.00000000        0.00000000        0.00000000
        -22.96006006        0.00000000        0.00000000        0.00000000
        -22.89939940        0.00000000        0.00000000        0.00000000
        -22.83873874        0.00000000        0.00000000        0.00000000
        -22.77807808        0.00000000        0.00000000        0.00000000
        -22.71741742        0.00000000        0.00000000        0.00000000
        -22.65675676        0.00000000        0.00000000        0.00000000
        -22.59609610        0.00000000        0.00000000        0.00000000
        -22.53543544        0.00000000        0.00000000        0.00000000
        -22.47477477        0.00000000        0.00000000        0.00000000
        -22.41411411        0.00000000        0.00000000        0.00000000
        -22.35345345        0.00000000        0.00000000        0.00000000
        -22.29279279        0.00000000        0.00000000        0.00000000
        -22.23213213        0.00000000        0.00000000        0.00000000
        -22.17147147        0.00000000        0.00000000        0.00000000
        -22.11081081        0.00000000        0.00000000        0.00000000
        -22.05015015        0.00000000        0.00000000        0.00000000
        -21.98948949        0.00000000        0.00000000        0.00000000
        -21.92882883        0.00000000        0.00000000        0.00000000
        -21.86816817        0.00000000        0.00000000        0.00000000
        -21.80750751        0.00000000        0.00000000        0.00000000
        -21.74684685        0.00000000        0.00000000        0.00000000
        -21.68618619        0.00000000        0.00000000        0.00000000
        -21.62552553        0.00000000        0.00000000        0.00000000
        -21.56486486        0.00000000        0.00000000        0.00000000
        -21.50420420        0.00000000        0.00000000        0.00000000
        -21.44354354        0.00000000        0.00000000        0.00000000
        -21.38288288        0.00000000        0.00000000        0.00000000
        -21.32222222        0.00000000        0.00000000        0.00000000
        -21.26156156        0.00000000        0.00000000        0.00000000
        -21.20090090        0.00000000        0.00000000        0.00000000
        -21.14024024        0.00000000        0.00000000        0.00000000
        -21.07957958        0.00000000        0.00000000        0.00000000
        -21.01891892        0.00000000        0.00000000        0.00000000
        -20.95825826        0.00000000        0.00000000        0.00000000
        -20.89759760        0.00000000        0.00000000        0.00000000
        -20.83693694        0.00000000        0.00000000        0.00000000
        -20.77627628        0.00000000        0.00000000        0.00000000
        -20.71561562        0.00000000        0.00000000        0.00000001
        -20.65495495        0.00000011        0.00000009        0.00000020
        -20.59429429        0.00000164        0.00000137        0.00000301
        -20.53363363        0.00001110        0.00000913        0.00002023
        -20.47297297        0.00003959        0.00003274        0.00007233
        -20.41231231        0.00021626        0.00020476        0.00042102
        -20.35165165        0.00132622        0.00131540        0.00264163
        -20.29099099        0.00421978        0.00420857        0.00842835
        -20.23033033        0.00712567        0.00710614        0.01423181
        -20.16966967        0.00737535        0.00734956        0.01472490
        -20.10900901        0.00571080        0.00569956        0.01141036
        -20.04834835        0.00451856        0.00452791        0.00904647
        -19.98768769        0.00471856        0.00472267        0.00944123
        -19.92702703        0.00657880        0.00656553        0.01314433
        -19.86636637        0.00881062        0.00879516        0.01760578
        -19.80570571        0.00987592        0.00986758        0.01974350
        -19.74504505        0.01058234        0.01057326        0.02115560
        -19.68438438        0.01123315        0.01121988        0.02245304
        -19.62372372        0.01143854        0.01142868        0.02286722
        -19.56306306        0.01121627        0.01121294        0.02242921
        -19.50240240        0.01063482        0.01063335        0.02126818
        -19.44174174        0.00968671        0.00968481        0.01937152
        -19.38108108        0.00876320        0.00876147        0.01752467
        -19.32042042        0.00832571        0.00832262        0.01664833
        -19.25975976        0.00862501        0.00862009        0.01724510
        -19.19909910        0.00954000        0.00953501        0.01907501
        -19.13843844        0.01013984        0.01013619        0.02027603
        -19.07777778        0.00967204        0.00966935        0.01934139
        -19.01711712        0.00858327        0.00858151        0.01716478
        -18.95645646        0.00762966        0.00762812        0.01525778
        -18.89579580        0.00713826        0.00713632        0.01427458
        -18.83513514        0.00708333        0.00708210        0.01416543
        -18.77447447        0.00751984        0.00751852        0.01503836
        -18.71381381        0.00816065        0.00815897        0.01631962
        -18.65315315        0.00849108        0.00849011        0.01698118
        -18.59249249        0.00816864        0.00816842        0.01633706
        -18.53183183        0.00792317        0.00792082        0.01584400
        -18.47117117        0.00856622        0.00855921        0.01712544
        -18.41051051        0.00887113        0.00886083        0.01773196
        -18.34984985        0.00792837        0.00791992        0.01584829
        -18.28918919        0.00670515        0.00670173        0.01340687
        -18.22852853        0.00626314        0.00626264        0.01252578
        -18.16786787        0.00729979        0.00730259        0.01460238
        -18.10720721        0.01003002        0.01003778        0.02006780
        -18.04654655        0.01202688        0.01203537        0.02406225
        -17.98588589        0.01015098        0.01015828        0.02030927
        -17.92522523        0.00594192        0.00594871        0.01189063
        -17.86456456        0.00268996        0.00269547        0.00538543
        -17.80390390        0.00158588        0.00158916        0.00317504
        -17.74324324        0.00190935        0.00191040        0.00381974
        -17.68258258        0.00173275        0.00173198        0.00346473
        -17.62192192        0.00079083        0.00078984        0.00158067
        -17.56126126        0.00017364        0.00017328        0.00034692
        -17.50060060        0.00001827        0.00001822        0.00003649
        -17.43993994        0.00000092        0.00000092        0.00000184
        -17.37927928        0.00000000        0.00000000        0.00000000
        -17.31861862        0.00000019        0.00000019        0.00000038
        -17.25795796        0.00000685        0.00000686        0.00001371
        -17.19729730        0.00011139        0.00011109        0.00022248
        -17.13663664        0.00089829        0.00089293        0.00179122
        -17.07597598        0.00369636        0.00366760        0.00736396
        -17.01531532        0.00839163        0.00833159        0.01672322
        -16.95465465        0.01313592        0.01307866        0.02621458
        -16.89399399        0.01934857        0.01929716        0.03864573
        -16.83333333        0.02558858        0.02552891        0.05111749
        -16.77267267        0.02513072        0.02508357        0.05021429
        -16.71201201        0.02071524        0.02066485        0.04138009
        -16.65135135        0.01951604        0.01944949        0.03896554
        -16.59069069        0.01987037        0.01982186        0.03969222
        -16.53003003        0.01893536        0.01889729        0.03783265
        -16.46936937        0.01886024        0.01880851        0.03766875
        -16.40870871        0.01994354        0.01990425        0.03984780
        -16.34804805        0.02012382        0.02010628        0.04023010
        -16.28738739        0.01976359        0.01974407        0.03950766
        -16.22672673        0.02017110        0.02013246        0.04030355
        -16.16606607        0.02185256        0.02180111        0.04365366
        -16.10540541        0.02436194        0.02431161        0.04867355
        -16.04474474        0.02642428        0.02637972        0.05280400
        -15.98408408        0.02758744        0.02755391        0.05514135
        -15.92342342        0.02942996        0.02940134        0.05883131
        -15.86276276        0.03248267        0.03244864        0.06493131
        -15.80210210        0.03568184        0.03563502        0.07131685
        -15.74144144        0.03841134        0.03835243        0.07676376
        -15.68078078        0.04071365        0.04065410        0.08136775
        -15.62012012        0.04540455        0.04534120        0.09074576
        -15.55945946        0.05705058        0.05697853        0.11402911
        -15.49879880        0.07251116        0.07244087        0.14495203
        -15.43813814        0.08519965        0.08512377        0.17032342
        -15.37747748        0.09347272        0.09335745        0.18683018
        -15.31681682        0.09466413        0.09451580        0.18917993
        -15.25615616        0.09670191        0.09651599        0.19321790
        -15.19549550        0.11995001        0.11966498        0.23961500
        -15.13483483        0.15123828        0.15089392        0.30213220
        -15.07417417        0.15298882        0.15268384        0.30567266
        -15.01351351        0.13055214        0.13026063        0.26081277
        -14.95285285        0.11470489        0.11445054        0.22915543
        -14.89219219        0.10687083        0.10680239        0.21367322
        -14.83153153        0.09739195        0.09749232        0.19488426
        -14.77087087        0.08361093        0.08373636        0.16734729
        -14.71021021        0.06754402        0.06761235        0.13515637
        -14.64954955        0.05868884        0.05872000        0.11740884
        -14.58888889        0.05133219        0.05136439        0.10269657
        -14.52822823        0.03326861        0.03329971        0.06656832
        -14.46756757        0.01394428        0.01396182        0.02790610
        -14.40690691        0.00391769        0.00392265        0.00784034
        -14.34624625        0.00074478        0.00074535        0.00149013
        -14.28558559        0.00008561        0.00008561        0.00017122
        -14.22492492        0.00000570        0.00000519        0.00001089
        -14.16426426        0.00002082        0.00001653        0.00003736
        -14.10360360        0.00039907        0.00033626        0.00073534
        -14.04294294        0.00385969        0.00345030        0.00730999
        -13.98228228        0.01931799        0.01820163        0.03751962
        -13.92162162        0.05258154        0.05154376        0.10412530
        -13.86096096        0.08502534        0.08514208        0.17016742
        -13.80030030        0.09944136        0.09997480        0.19941615
        -13.73963964        0.11353277        0.11375188        0.22728465
        -13.67897898        0.13197432        0.13191599        0.26389031
        -13.61831832        0.13886747        0.13854249        0.27740996
        -13.55765766        0.14220386        0.14164245        0.28384632
        -13.49699700        0.14836526        0.14780062        0.29616588
        -13.43633634        0.14477097        0.14443610        0.28920708
        -13.37567568        0.12643555        0.12635090        0.25278644
        -13.31501502        0.10624844        0.10624596        0.21249440
        -13.25435435        0.10214314        0.10209732        0.20424046
        -13.19369369        0.11236880        0.11229818        0.22466698
        -13.13303303        0.11814068        0.11808913        0.23622981
        -13.07237237        0.11315700        0.11308857        0.22624558
        -13.01171171        0.10558944        0.10539927        0.21098871
        -12.95105105        0.10178555        0.10144188        0.20322743
        -12.89039039        0.10024087        0.09994664        0.20018751
        -12.82972973        0.09095115        0.09097078        0.18192193
        -12.76906907        0.07877002        0.07895724        0.15772726
        -12.70840841        0.07943575        0.07949712        0.15893287
        -12.64774775        0.08984113        0.08976062        0.17960175
        -12.58708709        0.09468414        0.09454876        0.18923290
        -12.52642643        0.08310617        0.08296737        0.16607353
        -12.46576577        0.06305539        0.06293464        0.12599003
        -12.40510511        0.04684714        0.04675860        0.09360574
        -12.34444444        0.03914524        0.03909070        0.07823594
        -12.28378378        0.03910566        0.03904552        0.07815117
        -12.22312312        0.03790213        0.03780679        0.07570892
        -12.16246246        0.03188032        0.03170455        0.06358487
        -12.10180180        0.03016316        0.02988216        0.06004532
        -12.04114114        0.04275573        0.04233654        0.08509227
        -11.98048048        0.06766877        0.06704410        0.13471288
        -11.91981982        0.08682438        0.08634862        0.17317300
        -11.85915916        0.09478174        0.09468351        0.18946525
        -11.79849850        0.09938150        0.09943009        0.19881159
        -11.73783784        0.10241787        0.10252699        0.20494486
        -11.67717718        0.10920069        0.10931037        0.21851106
        -11.61651652        0.12289363        0.12290475        0.24579838
        -11.55585586        0.14488970        0.14475023        0.28963993
        -11.49519520        0.16609558        0.16583899        0.33193457
        -11.43453453        0.16406710        0.16372755        0.32779465
        -11.37387387        0.14735013        0.14688087        0.29423100
        -11.31321321        0.14243100        0.14187349        0.28430449
        -11.25255255        0.14374091        0.14324952        0.28699043
        -11.19189189        0.14311260        0.14268291        0.28579550
        -11.13123123        0.14806818        0.14765692        0.29572510
        -11.07057057        0.14989777        0.14961232        0.29951008
        -11.00990991        0.13601634        0.13589031        0.27190664
        -10.94924925        0.12329882        0.12309569        0.24639451
        -10.88858859        0.12030587        0.11974379        0.24004966
        -10.82792793        0.10832218        0.10754368        0.21586587
        -10.76726727        0.09875686        0.09775748        0.19651434
        -10.70660661        0.13967513        0.13764632        0.27732145
        -10.64594595        0.26297631        0.25925126        0.52222756
        -10.58528529        0.40552581        0.40046935        0.80599516
        -10.52462462        0.46598726        0.46117101        0.92715827
        -10.46396396        0.45182483        0.44924004        0.90106486
        -10.40330330        0.40751043        0.40733589        0.81484632
        -10.34264264        0.34100748        0.34201348        0.68302096
        -10.28198198        0.27723757        0.27796015        0.55519772
        -10.22132132        0.24947071        0.24929044        0.49876115
        -10.16066066        0.23541474        0.23477161        0.47018634
        -10.10000000        0.19783473        0.19731002        0.39514475
        -10.03933934        0.15583476        0.15554732        0.31138208
         -9.97867868        0.15521317        0.15483252        0.31004569
         -9.91801802        0.20896464        0.20790683        0.41687148
         -9.85735736        0.28368757        0.28154746        0.56523503
         -9.79669670        0.34263309        0.34024261        0.68287570
         -9.73603604        0.37487294        0.37343576        0.74830870
         -9.67537538        0.39621325        0.39527642        0.79148967
         -9.61471471        0.40677317        0.40534946        0.81212263
         -9.55405405        0.40811825        0.40595277        0.81407102
         -9.49339339        0.43793290        0.43459975        0.87253265
         -9.43273273        0.49343610        0.48867230        0.98210840
         -9.37207207        0.51523258        0.51073654        1.02596911
         -9.31141141        0.49129062        0.48847169        0.97976230
         -9.25075075        0.47626221        0.47420256        0.95046478
         -9.19009009        0.49482708        0.49242615        0.98725323
         -9.12942943        0.52863050        0.52590445        1.05453496
         -9.06876877        0.54640080        0.54403122        1.09043202
         -9.00810811        0.54082375        0.53897434        1.07979810
         -8.94744745        0.53357825        0.53169881        1.06527705
         -8.88678679        0.53621215        0.53396830        1.07018046
         -8.82612613        0.53664579        0.53439093        1.07103672
         -8.76546547        0.52987440        0.52875152        1.05862592
         -8.70480480        0.51512878        0.51587846        1.03100723
         -8.64414414        0.49906537        0.50127376        1.00033913
         -8.58348348        0.48698644        0.49036271        0.97734915
         -8.52282282        0.47121461        0.47682102        0.94803564
         -8.46216216        0.51176212        0.52742236        1.03918448
         -8.40150150        0.79037577        0.83732822        1.62770398
         -8.34084084        1.46287617        1.55401999        3.01689616
         -8.28018018        2.39756998        2.46993719        4.86750717
         -8.21951952        2.71522807        2.66572040        5.38094847
         -8.15885886        1.88575846        1.75594287        3.64170133
         -8.09819820        1.03783753        0.91196588        1.94980342
         -8.03753754        0.97020823        0.79172094        1.76192916
         -7.97687688        1.52225583        1.16884942        2.69110525
         -7.91621622        2.30835108        1.86600066        4.17435174
         -7.85555556        2.60628605        2.46279612        5.06908217
         -7.79489489        2.18204475        2.44110871        4.62315346
         -7.73423423        1.65838071        2.00122272        3.65960343
         -7.67357357        1.54410051        1.78276447        3.32686498
         -7.61291291        2.07182875        2.23029920        4.30212795
         -7.55225225        3.53938367        3.61663622        7.15601990
         -7.49159159        5.86344042        5.73677828       11.60021870
         -7.43093093        7.80052415        7.37460583       15.17512998
         -7.37027027        7.94692277        7.50821279       15.45513555
         -7.30960961        6.37136317        6.42650603       12.79786920
         -7.24894895        4.14345384        4.58883412        8.73228796
         -7.18828829        2.38068054        2.66983719        5.05051773
         -7.12762763        1.81765688        1.80161459        3.61927147
         -7.06696697        2.22663771        2.16245252        4.38909023
         -7.00630631        2.80168626        2.85290506        5.65459132
         -6.94564565        3.52880075        3.52983581        7.05863656
         -6.88498498        3.92494597        3.83105802        7.75600399
         -6.82432432        3.38610864        3.32773261        6.71384124
         -6.76366366        2.75754345        2.76477464        5.52231809
         -6.70300300        2.53045516        2.58297210        5.11342726
         -6.64234234        2.07021242        2.15773033        4.22794275
         -6.58168168        1.44210155        1.51325854        2.95536009
         -6.52102102        1.05078358        1.08261883        2.13340241
         -6.46036036        0.79781958        0.80856275        1.60638233
         -6.39969970        0.71336450        0.68464651        1.39801101
         -6.33903904        0.78991822        0.74316064        1.53307886
         -6.27837838        0.78077891        0.77966341        1.56044231
         -6.21771772        0.65621429        0.70057713        1.35679141
         -6.15705706        0.60913302        0.63988707        1.24902009