#            ENERGY              s1              s2              total
        -30.30000000        0.00000000        0.00000000        0.00000000
        -30.23933934        0.00000061        0.00000062        0.00000122
        -30.17867868        0.00003506        0.00003316        0.00006822
        -30.11801802        0.00062424        0.00059506        0.00121930
        -30.05735736        0.00561261        0.00541317        0.01102578
        -29.99669670        0.02604320        0.02547923        0.05152243
        -29.93603604        0.06530008        0.06480816        0.13010824
        -29.87537538        0.09818387        0.09847046        0.19665432
        -29.81471471        0.10808031        0.10866374        0.21674406
        -29.75405405        0.11043965        0.11060022        0.22103987
        -29.69339339        0.11965330        0.11946186        0.23911516
        -29.63273273        0.12543716        0.12530577        0.25074293
        -29.57207207        0.11767292        0.11765412        0.23532704
        -29.51141141        0.11983066        0.11951660        0.23934726
        -29.45075075        0.13432955        0.13376696        0.26809651
        -29.39009009        0.12669145        0.12666635        0.25335779
        -29.32942943        0.08472462        0.08525442        0.16997904
        -29.26876877        0.04415673        0.04459139        0.08874812
        -29.20810811        0.02711205        0.02733312        0.05444517
        -29.14744745        0.02599746        0.02610546        0.05210292
        -29.08678679        0.02835043        0.02838010        0.05673053
        -29.02612613        0.02214353        0.02212191        0.04426544
        -28.96546547        0.01062800        0.01060276        0.02123076
        -28.90480480        0.00399653        0.00398763        0.00798416
        -28.84414414        0.00171658        0.00171498        0.00343157
        -28.78348348        0.00057953        0.00057920        0.00115872
        -28.72282282        0.00010469        0.00010462        0.00020931
        -28.66216216        0.00000921        0.00000920        0.00001842
        -28.60150150        0.00000039        0.00000039        0.00000078
        -28.54084084        0.00000000        0.00000000        0.00000000
        -28.48018018        0.00000000        0.00000000        0.00000000
        -28.41951952        0.00000000        0.00000000        0.00000000
        -28.35885886        0.00000000        0.00000000        0.00000000
        -28.29819820        0.00000000        0.00000000        0.00000000
        -28.23753754        0.00000000        0.00000000        0.00000000
        -28.17687688        0.00000000        0.00000000        0.00000000
        -28.11621622        0.00000000        0.00000000        0.00000000
        -28.05555556        0.00000000        0.00000000        0.00000000
        -27.99489489        0.00000000        0.00000000        0.00000000
        -27.93423423        0.00000000        0.00000000        0.00000000
        -27.87357357        0.00000000        0.00000000        0.00000000
        -27.81291291        0.00000000        0.00000000        0.00000000
        -27.75225225        0.00000000        0.00000000        0.00000000
        -27.69159159        0.00000000        0.00000000        0.00000000
        -27.63093093        0.00000000        0.00000000        0.00000000
        -27.57027027        0.00000000        0.00000000        0.00000000
        -27.50960961        0.00000000        0.00000000        0.00000000
        -27.44894895        0.00000000        0.00000000        0.00000000
        -27.38828829        0.00000000        0.00000000        0.00000000
        -27.32762763        0.00000000        0.00000000        0.00000000
        -27.26696697        0.00000000        0.00000000        0.00000000
        -27.20630631        0.00000000        0.00000000        0.00000000
        -27.14564565        0.00000000        0.00000000        0.00000000
        -27.08498498        0.00000000        0.00000000        0.00000000
        -27.02432432        0.00000000        0.00000000        0.00000000
        -26.96366366        0.00000000        0.00000000        0.00000000
        -26.90300300        0.00000000        0.00000000        0.00000000
        -26.84234234        0.00000000        0.00000000        0.00000000
        -26.78168168        0.00000000        0.00000000        0.00000000
        -26.72102102        0.00000000        0.00000000        0.00000000
        -26.66036036        0.00000000        0.00000000        0.00000000
        -26.59969970        0.00000000        0.00000000        0.00000000
        -26.53903904        0.00000000        0.00000000        0.00000000
        -26.47837838        0.00000000        0.00000000        0.00000000
        -26.41771772        0.00000000        0.00000000        0.00000000
        -26.35705706        0.00000000        0.00000000        0.00000000
        -26.29639640        0.00000000        0.00000000        0.00000000
        -26.23573574        0.00000000        0.00000000        0.00000000
        -26.17507508        0.00000000        0.00000000        0.00000000
        -26.11441441        0.00000000        0.00000000        0.00000000
        -26.05375375        0.00000000        0.00000000        0.00000000
        -25.99309309        0.00000000        0.00000000        0.00000000
        -25.93243243        0.00000000        0.00000000        0.00000000
        -25.87177177        0.00000000        0.00000000        0.00000000
        -25.81111111        0.00000000        0.00000000        0.00000000
        -25.75045045        0.00000000        0.00000000        0.00000000
        -25.68978979        0.00000000        0.00000000        0.00000000
        -25.62912913        0.00000000        0.00000000        0.00000000
        -25.56846847        0.00000000        0.00000000        0.00000000
        -25.50780781        0.00000000        0.00000000        0.00000000
        -25.44714715        0.00000000        0.00000000        0.00000000
        -25.38648649        0.00000000        0.00000000        0.00000000
        -25.32582583        0.00000000        0.00000000        0.00000000
        -25.26516517        0.00000000        0.00000000        0.00000000
        -25.20450450        0.00000000        0.00000000        0.00000000
        -25.14384384        0.00000000        0.00000000        0.00000000
        -25.08318318        0.00000000        0.00000000        0.00000000
        -25.02252252        0.00000000        0.00000000        0.00000000
        -24.96186186        0.00000000        0.00000000        0.00000000
        -24.90120120        0.00000000        0.00000000        0.00000000
        -24.84054054        0.00000000        0.00000000        0.00000000
        -24.77987988        0.00000000        0.00000000        0.00000000
        -24.71921922        0.00000000        0.00000000        0.00000000
        -24.65855856        0.00000000        0.00000000        0.00000000
        -24.59789790        0.00000000        0.00000000        0.00000000
        -24.53723724        0.00000000        0.00000000        0.00000000
        -24.47657658        0.00000000        0.00000000        0.00000000
        -24.41591592        0.00000000        0.00000000        0.00000000
        -24.35525526        0.00000000        0.00000000        0.00000000
        -24.29459459        0.00000000        0.00000000        0.00000000
        -24.23393393        0.00000000        0.00000000        0.00000000
        -24.17327327        0.00000000        0.00000000        0.00000000
        -24.11261261        0.00000000        0.00000000        0.00000000
        -24.05195195        0.00000000        0.00000000        0.00000000
        -23.99129129        0.00000000        0.00000000        0.00000000
        -23.93063063        0.00000000        0.00000000        0.00000000
        -23.86996997        0.00000000        0.00000000        0.00000000
        -23.80930931        0.00000000        0.00000000        0.00000000
        -23.74864865        0.00000000        0.00000000        0.00000000
        -23.68798799        0.00000000        0.00000000        0.00000000
        -23.62732733        0.00000000        0.00000000        0.00000000
        -23.56666667        0.00000000        0.00000000        0.00000000
        -23.50600601        0.00000000        0.00000000        0.00000000
        -23.44534535        0.00000000        0.00000000        0.00000000
        -23.38468468        0.00000000        0.00000000        0.00000000
        -23.32402402        0.00000000        0.00000000        0.00000000
        -23.26336336        0.00000000        0.00000000        0.00000000
        -23.20270270        0.00000000        0.00000000        0.00000000
        -23.14204204        0.00000000        0.00000000        0.00000000
        -23.08138138        0.00000000        0.00000000        0.00000000
        -23.02072072        0.00000000        0.00000000        0.00000000
        -22.96006006        0.00000000        0.00000000        0.00000000
        -22.89939940        0.00000000        0.00000000        0.00000000
        -22.83873874        0.00000000        0.00000000        0.00000000
        -22.77807808        0.00000000        0.00000000        0.00000000
        -22.71741742        0.00000000        0.00000000        0.00000000
        -22.65675676        0.00000000        0.00000000        0.00000000
        -22.59609610        0.00000000        0.00000000        0.00000000
        -22.53543544        0.00000000        0.00000000        0.00000000
        -22.47477477        0.00000000        0.00000000        0.00000000
        -22.41411411        0.00000000        0.00000000        0.00000000
        -22.35345345        0.00000000        0.00000000        0.00000000
        -22.29279279        0.00000000        0.00000000        0.00000000
        -22.23213213        0.00000000        0.00000000        0.00000000
        -22.17147147        0.00000000        0.00000000        0.00000000
        -22.11081081        0.00000000        0.00000000        0.00000000
        -22.05015015        0.00000000        0.00000000        0.00000000
        -21.98948949        0.00000000        0.00000000        0.00000000
        -21.92882883        0.00000000        0.00000000        0.00000000
        -21.86816817        0.00000000        0.00000000        0.00000000
        -21.80750751        0.00000000        0.00000000        0.00000000
        -21.74684685        0.00000000        0.00000000        0.00000000
        -21.68618619        0.00000000        0.00000000        0.00000000
        -21.62552553        0.00000000        0.00000000        0.00000000
        -21.56486486        0.00000000        0.00000000        0.00000000
        -21.50420420        0.00000000        0.00000000        0.00000000
        -21.44354354        0.00000000        0.00000000        0.00000000
        -21.38288288        0.00000000        0.00000000        0.00000000
        -21.32222222        0.00000000        0.00000000        0.00000000
        -21.26156156        0.00000000        0.00000000        0.00000000
        -21.20090090        0.00000000        0.00000000        0.00000000
        -21.14024024        0.00000000        0.00000000        0.00000000
        -21.07957958        0.00000000        0.00000000        0.00000000
        -21.01891892        0.00000000        0.00000000        0.00000000
        -20.95825826        0.00000000        0.00000000        0.00000000
        -20.89759760        0.00000000        0.00000000        0.00000000
        -20.83693694        0.00000000        0.00000000        0.00000000
        -20.77627628        0.00000000        0.00000000        0.00000000
        -20.71561562        0.00000005        0.00000004        0.00000009
        -20.65495495        0.00000167        0.00000153        0.00000320
        -20.59429429        0.00002935        0.00002740        0.00005675
        -20.53363363        0.00025895        0.00024641        0.00050537
        -20.47297297        0.00120939        0.00117331        0.00238270
        -20.41231231        0.00343498        0.00339056        0.00682554
        -20.35165165        0.00752095        0.00749438        0.01501533
        -20.29099099        0.01430387        0.01427208        0.02857594
        -20.23033033        0.02180557        0.02173506        0.04354063
        -20.16966967        0.02625162        0.02614455        0.05239617
        -20.10900901        0.02656306        0.02645729        0.05302035
        -20.04834835        0.02447781        0.02440864        0.04888645
        -19.98768769        0.02259686        0.02254767        0.04514454
        -19.92702703        0.02309306        0.02302757        0.04612063
        -19.86636637        0.02517187        0.02509512        0.05026699
        -19.80570571        0.02648721        0.02642007        0.05290728
        -19.74504505        0.02712167        0.02706185        0.05418352
        -19.68438438        0.02712667        0.02706938        0.05419605
        -19.62372372        0.02662830        0.02658095        0.05320925
        -19.56306306        0.02590015        0.02586608        0.05176622
        -19.50240240        0.02454539        0.02451740        0.04906278
        -19.44174174        0.02232650        0.02229908        0.04462557
        -19.38108108        0.02045004        0.02042206        0.04087210
        -19.32042042        0.02000861        0.01997633        0.03998494
        -19.25975976        0.02087339        0.02083666        0.04171005
        -19.19909910        0.02222459        0.02218967        0.04441427
        -19.13843844        0.02283128        0.02280252        0.04563379
        -19.07777778        0.02175839        0.02173384        0.04349224
        -19.01711712        0.01989333        0.01987064        0.03976396
        -18.95645646        0.01868487        0.01866303        0.03734789
        -18.89579580        0.01823846        0.01821561        0.03645407
        -18.83513514        0.01812169        0.01809731        0.03621899
        -18.77447447        0.01862019        0.01859414        0.03721433
        -18.71381381        0.01950655        0.01948040        0.03898695
        -18.65315315        0.02000559        0.01997939        0.03998498
        -18.59249249        0.01956717        0.01954077        0.03910795
        -18.53183183        0.01925858        0.01922722        0.03848581
        -18.47117117        0.02020905        0.02016431        0.04037336
        -18.41051051        0.02087788        0.02081882        0.04169670
        -18.34984985        0.02030107        0.02023786        0.04053893
        -18.28918919        0.01933342        0.01927698        0.03861041
        -18.22852853        0.01890967        0.01885967        0.03776934
        -18.16786787        0.02065081        0.02061153        0.04126234
        -18.10720721        0.02491156        0.02489119        0.04980275
        -18.04654655        0.02685808        0.02684821        0.05370629
        -17.98588589        0.02181086        0.02180555        0.04361641
        -17.92522523        0.01320202        0.01320392        0.02640594
        -17.86456456        0.00649158        0.00649909        0.01299067
        -17.80390390        0.00426332        0.00427129        0.00853461
        -17.74324324        0.00535607        0.00536083        0.01071690
        -17.68258258        0.00487988        0.00487973        0.00975962
        -17.62192192        0.00222773        0.00222590        0.00445363
        -17.56126126        0.00048914        0.00048835        0.00097749
        -17.50060060        0.00005147        0.00005135        0.00010282
        -17.43993994        0.00000259        0.00000259        0.00000518
        -17.37927928        0.00000000        0.00000000        0.00000000
        -17.31861862        0.00000057        0.00000058        0.00000115
        -17.25795796        0.00002098        0.00002100        0.00004197
        -17.19729730        0.00034185        0.00034073        0.00068258
        -17.13663664        0.00275994        0.00274132        0.00550126
        -17.07597598        0.01132494        0.01122659        0.02255152
        -17.01531532        0.02522532        0.02502102        0.05024633
        -16.95465465        0.03708962        0.03689815        0.07398777
        -16.89399399        0.05042619        0.05026901        0.10069520
        -16.83333333        0.06549471        0.06532845        0.13082316
        -16.77267267        0.06481500        0.06469920        0.12951420
        -16.71201201        0.05137724        0.05125531        0.10263255
        -16.65135135        0.04601872        0.04583736        0.09185608
        -16.59069069        0.04770885        0.04756520        0.09527406
        -16.53003003        0.04633826        0.04622759        0.09256586
        -16.46936937        0.04517743        0.04503304        0.09021046
        -16.40870871        0.04663919        0.04651817        0.09315736
        -16.34804805        0.04761826        0.04754586        0.09516412
        -16.28738739        0.04827792        0.04820052        0.09647844
        -16.22672673        0.04943079        0.04931305        0.09874384
        -16.16606607        0.05211807        0.05197237        0.10409044
        -16.10540541        0.05671276        0.05656440        0.11327716
        -16.04474474        0.06126694        0.06112086        0.12238781
        -15.98408408        0.06468260        0.06455377        0.12923637
        -15.92342342        0.06900903        0.06889043        0.13789946
        -15.86276276        0.07467985        0.07454854        0.14922839
        -15.80210210        0.08190815        0.08174561        0.16365376
        -15.74144144        0.09081947        0.09062142        0.18144089
        -15.68078078        0.09825918        0.09805197        0.19631115
        -15.62012012        0.10575034        0.10554818        0.21129852
        -15.55945946        0.12386016        0.12368220        0.24754236
        -15.49879880        0.15219639        0.15206151        0.30425791
        -15.43813814        0.17588444        0.17574555        0.35162999
        -15.37747748        0.18665389        0.18642728        0.37308117
        -15.31681682        0.18249656        0.18219052        0.36468709
        -15.25615616        0.18206841        0.18169546        0.36376386
        -15.19549550        0.22139333        0.22087325        0.44226658
        -15.13483483        0.27720882        0.27657783        0.55378665
        -15.07417417        0.28194109        0.28132292        0.56326401
        -15.01351351        0.24107750        0.24044596        0.48152346
        -14.95285285        0.20952322        0.20892951        0.41845274
        -14.89219219        0.19563830        0.19532716        0.39096546
        -14.83153153        0.18328770        0.18328989        0.36657759
        -14.77087087        0.16028176        0.16041153        0.32069328
        -14.71021021        0.12645466        0.12653577        0.25299043
        -14.64954955        0.10491664        0.10492592        0.20984256
        -14.58888889        0.09007859        0.09007658        0.18015517
        -14.52822823        0.05851564        0.05852233        0.11703797
        -14.46756757        0.02499360        0.02500094        0.04999454
        -14.40690691        0.00730551        0.00730763        0.01461314
        -14.34624625        0.00144812        0.00144804        0.00289616
        -14.28558559        0.00017081        0.00017071        0.00034152
        -14.22492492        0.00001168        0.00001048        0.00002216
        -14.16426426        0.00004933        0.00003904        0.00008837
        -14.10360360        0.00096674        0.00081508        0.00178181
        -14.04294294        0.00963214        0.00863346        0.01826559
        -13.98228228        0.05074998        0.04797528        0.09872526
        -13.92162162        0.14887713        0.14616291        0.29504004
        -13.86096096        0.26060562        0.26068580        0.52129142
        -13.80030030        0.31515099        0.31640722        0.63155820
        -13.73963964        0.34994000        0.35051530        0.70045530
        -13.67897898        0.40193762        0.40174661        0.80368423
        -13.61831832        0.41975862        0.41879466        0.83855328
        -13.55765766        0.41199350        0.41034365        0.82233715
        -13.49699700        0.41275631        0.41097541        0.82373173
        -13.43633634        0.39922682        0.39798671        0.79721353
        -13.37567568        0.35492041        0.35441766        0.70933807
        -13.31501502        0.30508457        0.30495796        0.61004254
        -13.25435435        0.28686950        0.28672613        0.57359563
        -13.19369369        0.30347621        0.30318533        0.60666153
        -13.13303303        0.31758395        0.31724241        0.63482636
        -13.07237237        0.30280653        0.30249808        0.60530461
        -13.01171171        0.27624515        0.27577406        0.55201921
        -12.95105105        0.26319311        0.26237290        0.52556601
        -12.89039039        0.25510207        0.25430620        0.50940827
        -12.82972973        0.22809182        0.22793568        0.45602750
        -12.76906907        0.19793427        0.19822686        0.39616113
        -12.70840841        0.19373726        0.19387761        0.38761487
        -12.64774775        0.21065366        0.21052025        0.42117392
        -12.58708709        0.21958576        0.21931022        0.43889598
        -12.52642643        0.19168562        0.19136800        0.38305361
        -12.46576577        0.14634681        0.14603721        0.29238402
        -12.40510511        0.11214741        0.11191572        0.22406313
        -12.34444444        0.09337967        0.09326607        0.18664574
        -12.28378378        0.09018404        0.09008938        0.18027342
        -12.22312312        0.08999938        0.08981829        0.17981767
        -12.16246246        0.08159955        0.08118486        0.16278442
        -12.10180180        0.08118486        0.08045604        0.16164091
        -12.04114114        0.12042925        0.11930138        0.23973063
        -11.98048048        0.19242877        0.19075455        0.38318332
        -11.91981982        0.23575443        0.23444381        0.47019824
        -11.85915916        0.24234368        0.24199894        0.48434263
        -11.79849850        0.24664919        0.24661040        0.49325959
        -11.73783784        0.25486619        0.25479299        0.50965918
        -11.67717718        0.28253720        0.28236237        0.56489956
        -11.61651652        0.32687490        0.32664820        0.65352310
        -11.55585586        0.37436782        0.37402201        0.74838983
        -11.49519520        0.41615323        0.41545068        0.83160391
        -11.43453453        0.41684582        0.41582867        0.83267449
        -11.37387387        0.38647938        0.38530258        0.77178197
        -11.31321321        0.37296279        0.37170408        0.74466687
        -11.25255255        0.37326929        0.37213958        0.74540887
        -11.19189189        0.37984322        0.37883570        0.75867892
        -11.13123123        0.40071905        0.39986265        0.80058170
        -11.07057057        0.40010832        0.39972794        0.79983626
        -11.00990991        0.34998758        0.35003203        0.70001961
        -10.94924925        0.31002605        0.30989423        0.61992029
        -10.88858859        0.30525077        0.30423327        0.60948404
        -10.82792793        0.28106845        0.27933906        0.56040751
        -10.76726727        0.26582934        0.26368296        0.52951230
        -10.70660661        0.36513921        0.36158983        0.72672904
        -10.64594595        0.61592492        0.61038341        1.22630833
        -10.58528529        0.86753998        0.86053109        1.72807107
        -10.52462462        0.95828283        0.95129146        1.90957429
        -10.46396396        0.94637840        0.94188483        1.88826323
        -10.40330330        0.90478737        0.90353794        1.80832531
        -10.34264264        0.79797375        0.79915204        1.59712579
        -10.28198198        0.66480252        0.66581018        1.33061271
        -10.22132132        0.59221161        0.59154646        1.18375807
        -10.16066066        0.53978090        0.53834039        1.07812128
        -10.10000000        0.45188436        0.45055823        0.90244259
        -10.03933934        0.38387492        0.38292144        0.76679636
         -9.97867868        0.40671110        0.40575999        0.81247109
         -9.91801802        0.51755531        0.51544699        1.03300231
         -9.85735736        0.66386752        0.65957693        1.32344445
         -9.79669670        0.80071369        0.79586008        1.59657377
         -9.73603604        0.89391270        0.89081828        1.78473099
         -9.67537538        0.95775067        0.95540282        1.91315349
         -9.61471471        0.98300816        0.97964293        1.96265108
         -9.55405405        0.97073294        0.96595657        1.93668950
         -9.49339339        1.02481309        1.01783523        2.04264831
         -9.43273273        1.14574352        1.13630446        2.28204799
         -9.37207207        1.20020748        1.19133749        2.39154497
         -9.31141141        1.18783088        1.18170398        2.36953487
         -9.25075075        1.21891749        1.21373606        2.43265355
         -9.19009009        1.30789744        1.30156415        2.60946159
         -9.12942943        1.41296834        1.40566159        2.81862994
         -9.06876877        1.47189054        1.46573824        2.93762878
         -9.00810811        1.46809530        1.46381707        2.93191237
         -8.94744745        1.46794626        1.46349467        2.93144093
         -8.88678679        1.49169323        1.48541393        2.97710716
         -8.82612613        1.51130756        1.50394499        3.01525255
         -8.76546547        1.50348790        1.49841867        3.00190657
         -8.70480480        1.42877490        1.42779826        2.85657316
         -8.64414414        1.33383010        1.33519976        2.66902985
         -8.58348348        1.26783388        1.27037290        2.53820678
         -8.52282282        1.19535218        1.20007422        2.39542640
         -8.46216216        1.17709201        1.19501616        2.37210817
         -8.40150150        1.48390474        1.54592497        3.02982971
         -8.34084084        2.34272578        2.46906422        4.81178999
         -8.28018018        3.56701238        3.67229131        7.23930369
         -8.21951952        3.97996209        3.91860348        7.89856557
         -8.15885886        2.88446450        2.70864217        5.59310667
         -8.09819820        1.81775853        1.64138083        3.45913935
         -8.03753754        1.86950794        1.60177055        3.47127849
         -7.97687688        2.89053374        2.32995206        5.22048581
         -7.91621622        4.36173059        3.62914943        7.99088002
         -7.85555556        5.10542527        4.82921980        9.93464507
         -7.79489489        4.76238468        5.15116203        9.91354672
         -7.73423423        4.63929691        5.22031137        9.85960829
         -7.67357357        6.27638663        6.78631726       13.06270389
         -7.61291291       11.32579252       11.79297037       23.11876289
         -7.55225225       21.66764566       21.77618800       43.44383366
         -7.49159159       36.99806170       35.64282140       72.64088310
         -7.43093093       50.47074150       46.87831908       97.34906058
         -7.37027027       54.17213113       50.51640178      104.68853291
         -7.30960961       48.36950340       48.54104389       96.91054730
         -7.24894895       37.05260367       40.64841284       77.70101651
         -7.18828829       25.64619116       28.10345271       53.74964387
         -7.12762763       23.34849374       22.70881269       46.05730643
         -7.06696697       29.62487645       28.64546282       58.27033927
         -7.00630631       33.59424882       34.49148983       68.08573865
         -6.94564565       37.64977720       38.37528475       76.02506195
         -6.88498498       43.26979777       42.67537069       85.94516846
         -6.82432432       44.92926570       43.61811634       88.54738204
         -6.76366366       47.78443692       46.22665336       94.01109028
         -6.70300300       52.67765745       51.86361943      104.54127688
         -6.64234234       52.92894602       53.92202504      106.85097106
         -6.58168168       53.64234518       55.46206123      109.10440641
         -6.52102102       57.96763653       58.74396954      116.71160607
         -6.46036036       61.37487921       60.79113047      122.16600968
         -6.39969970       67.35304934       65.80383534      133.15688468
         -6.33903904       74.53176950       73.16943790      147.70120740
         -6.27837838       73.04895294       73.27572927      146.32468221
         -6.21771772       68.54099055       69.36837379      137.90936434
         -6.15705706       72.94940419       72.37635260      145.32575679