#            ENERGY              s1              s2              total
        -30.30000000        0.00000000        0.00000000        0.00000000
        -30.23933934        0.00000006        0.00000006        0.00000012
        -30.17867868        0.00000238        0.00000233        0.00000471
        -30.11801802        0.00003908        0.00003826        0.00007734
        -30.05735736        0.00032219        0.00031590        0.00063810
        -29.99669670        0.00137288        0.00135245        0.00272532
        -29.93603604        0.00319550        0.00317185        0.00636735
        -29.87537538        0.00451122        0.00451441        0.00902562
        -29.81471471        0.00463774        0.00465985        0.00929759
        -29.75405405        0.00436123        0.00437258        0.00873381
        -29.69339339        0.00440410        0.00440127        0.00880537
        -29.63273273        0.00447879        0.00447530        0.00895409
        -29.57207207        0.00407033        0.00407102        0.00814136
        -29.51141141        0.00374416        0.00373869        0.00748285
        -29.45075075        0.00378498        0.00377187        0.00755685
        -29.39009009        0.00339230        0.00338845        0.00678076
        -29.32942943        0.00210827        0.00211619        0.00422446
        -29.26876877        0.00087586        0.00088349        0.00175935
        -29.20810811        0.00033561        0.00033967        0.00067529
        -29.14744745        0.00023833        0.00024026        0.00047859
        -29.08678679        0.00027956        0.00028020        0.00055976
        -29.02612613        0.00024094        0.00024071        0.00048165
        -28.96546547        0.00011059        0.00011020        0.00022079
        -28.90480480        0.00002321        0.00002306        0.00004626
        -28.84414414        0.00000068        0.00000066        0.00000134
        -28.78348348       -0.00000071       -0.00000071       -0.00000141
        -28.72282282       -0.00000016       -0.00000015       -0.00000031
        -28.66216216       -0.00000001       -0.00000001       -0.00000003
        -28.60150150       -0.00000000       -0.00000000       -0.00000000
        -28.54084084        0.00000000        0.00000000        0.00000000
        -28.48018018        0.00000000        0.00000000        0.00000000
        -28.41951952        0.00000000        0.00000000        0.00000000
        -28.35885886        0.00000000        0.00000000        0.00000000
        -28.29819820        0.00000000        0.00000000        0.00000000
        -28.23753754        0.00000000        0.00000000        0.00000000
        -28.17687688        0.00000000        0.00000000        0.00000000
        -28.11621622        0.00000000        0.00000000        0.00000000
        -28.05555556        0.00000000        0.00000000        0.00000000
        -27.99489489        0.00000000        0.00000000        0.00000000
        -27.93423423        0.00000000        0.00000000        0.00000000
        -27.87357357        0.00000000        0.00000000        0.00000000
        -27.81291291        0.00000000        0.00000000        0.00000000
        -27.75225225        0.00000000        0.00000000        0.00000000
        -27.69159159        0.00000000        0.00000000        0.00000000
        -27.63093093        0.00000000        0.00000000        0.00000000
        -27.57027027        0.00000000        0.00000000        0.00000000
        -27.50960961        0.00000000        0.00000000        0.00000000
        -27.44894895        0.00000000        0.00000000        0.00000000
        -27.38828829        0.00000000        0.00000000        0.00000000
        -27.32762763        0.00000000        0.00000000        0.00000000
        -27.26696697        0.00000000        0.00000000        0.00000000
        -27.20630631        0.00000000        0.00000000        0.00000000
        -27.14564565        0.00000000        0.00000000        0.00000000
        -27.08498498        0.00000000        0.00000000        0.00000000
        -27.02432432        0.00000000        0.00000000        0.00000000
        -26.96366366        0.00000000        0.00000000        0.00000000
        -26.90300300        0.00000000        0.00000000        0.00000000
        -26.84234234        0.00000000        0.00000000        0.00000000
        -26.78168168        0.00000000        0.00000000        0.00000000
        -26.72102102        0.00000000        0.00000000        0.00000000
        -26.66036036        0.00000000        0.00000000        0.00000000
        -26.59969970        0.00000000        0.00000000        0.00000000
        -26.53903904        0.00000000        0.00000000        0.00000000
        -26.47837838        0.00000000        0.00000000        0.00000000
        -26.41771772        0.00000000        0.00000000        0.00000000
        -26.35705706        0.00000000        0.00000000        0.00000000
        -26.29639640        0.00000000        0.00000000        0.00000000
        -26.23573574        0.00000000        0.00000000        0.00000000
        -26.17507508        0.00000000        0.00000000        0.00000000
        -26.11441441        0.00000000        0.00000000        0.00000000
        -26.05375375        0.00000000        0.00000000        0.00000000
        -25.99309309        0.00000000        0.00000000        0.00000000
        -25.93243243        0.00000000        0.00000000        0.00000000
        -25.87177177        0.00000000        0.00000000        0.00000000
        -25.81111111        0.00000000        0.00000000        0.00000000
        -25.75045045        0.00000000        0.00000000        0.00000000
        -25.68978979        0.00000000        0.00000000        0.00000000
        -25.62912913        0.00000000        0.00000000        0.00000000
        -25.56846847        0.00000000        0.00000000        0.00000000
        -25.50780781        0.00000000        0.00000000        0.00000000
        -25.44714715        0.00000000        0.00000000        0.00000000
        -25.38648649        0.00000000        0.00000000        0.00000000
        -25.32582583        0.00000000        0.00000000        0.00000000
        -25.26516517        0.00000000        0.00000000        0.00000000
        -25.20450450        0.00000000        0.00000000        0.00000000
        -25.14384384        0.00000000        0.00000000        0.00000000
        -25.08318318        0.00000000        0.00000000        0.00000000
        -25.02252252        0.00000000        0.00000000        0.00000000
        -24.96186186        0.00000000        0.00000000        0.00000000
        -24.90120120        0.00000000        0.00000000        0.00000000
        -24.84054054        0.00000000        0.00000000        0.00000000
        -24.77987988        0.00000000        0.00000000        0.00000000
        -24.71921922        0.00000000        0.00000000        0.00000000
        -24.65855856        0.00000000        0.00000000        0.00000000
        -24.59789790        0.00000000        0.00000000        0.00000000
        -24.53723724        0.00000000        0.00000000        0.00000000
        -24.47657658        0.00000000        0.00000000        0.00000000
        -24.41591592        0.00000000        0.00000000        0.00000000
        -24.35525526        0.00000000        0.00000000        0.00000000
        -24.29459459        0.00000000        0.00000000        0.00000000
        -24.23393393        0.00000000        0.00000000        0.00000000
        -24.17327327        0.00000000        0.00000000        0.00000000
        -24.11261261        0.00000000        0.00000000        0.00000000
        -24.05195195        0.00000000        0.00000000        0.00000000
        -23.99129129        0.00000000        0.00000000        0.00000000
        -23.93063063        0.00000000        0.00000000        0.00000000
        -23.86996997        0.00000000        0.00000000        0.00000000
        -23.80930931        0.00000000        0.00000000        0.00000000
        -23.74864865        0.00000000        0.00000000        0.00000000
        -23.68798799        0.00000000        0.00000000        0.00000000
        -23.62732733        0.00000000        0.00000000        0.00000000
        -23.56666667        0.00000000        0.00000000        0.00000000
        -23.50600601        0.00000000        0.00000000        0.00000000
        -23.44534535        0.00000000        0.00000000        0.00000000
        -23.38468468        0.00000000        0.00000000        0.00000000
        -23.32402402        0.00000000        0.00000000        0.00000000
        -23.26336336        0.00000000        0.00000000        0.00000000
        -23.20270270        0.00000000        0.00000000        0.00000000
        -23.14204204        0.00000000        0.00000000        0.00000000
        -23.08138138        0.00000000        0.00000000        0.00000000
        -23.02072072        0.00000000        0.00000000        0.00000000
        -22.96006006        0.00000000        0.00000000        0.00000000
        -22.89939940        0.00000000        0.00000000        0.00000000
        -22.83873874        0.00000000        0.00000000        0.00000000
        -22.77807808        0.00000000        0.00000000        0.00000000
        -22.71741742        0.00000000        0.00000000        0.00000000
        -22.65675676        0.00000000        0.00000000        0.00000000
        -22.59609610        0.00000000        0.00000000        0.00000000
        -22.53543544        0.00000000        0.00000000        0.00000000
        -22.47477477        0.00000000        0.00000000        0.00000000
        -22.41411411        0.00000000        0.00000000        0.00000000
        -22.35345345        0.00000000        0.00000000        0.00000000
        -22.29279279        0.00000000        0.00000000        0.00000000
        -22.23213213        0.00000000        0.00000000        0.00000000
        -22.17147147        0.00000000        0.00000000        0.00000000
        -22.11081081        0.00000000        0.00000000        0.00000000
        -22.05015015        0.00000000        0.00000000        0.00000000
        -21.98948949        0.00000000        0.00000000        0.00000000
        -21.92882883        0.00000000        0.00000000        0.00000000
        -21.86816817        0.00000000        0.00000000        0.00000000
        -21.80750751        0.00000000        0.00000000        0.00000000
        -21.74684685        0.00000000        0.00000000        0.00000000
        -21.68618619        0.00000000        0.00000000        0.00000000
        -21.62552553        0.00000000        0.00000000        0.00000000
        -21.56486486        0.00000000        0.00000000        0.00000000
        -21.50420420        0.00000000        0.00000000        0.00000000
        -21.44354354        0.00000000        0.00000000        0.00000000
        -21.38288288        0.00000000        0.00000000        0.00000000
        -21.32222222        0.00000000        0.00000000        0.00000000
        -21.26156156        0.00000000        0.00000000        0.00000000
        -21.20090090        0.00000000        0.00000000        0.00000000
        -21.14024024        0.00000000        0.00000000        0.00000000
        -21.07957958        0.00000000        0.00000000        0.00000000
        -21.01891892        0.00000000        0.00000000        0.00000000
        -20.95825826        0.00000000        0.00000000        0.00000000
        -20.89759760        0.00000000        0.00000000        0.00000000
        -20.83693694        0.00000000        0.00000000        0.00000000
        -20.77627628        0.00000000        0.00000000        0.00000000
        -20.71561562        0.00000001        0.00000001        0.00000001
        -20.65495495        0.00000025        0.00000023        0.00000049
        -20.59429429        0.00000452        0.00000426        0.00000878
        -20.53363363        0.00004083        0.00003916        0.00007999
        -20.47297297        0.00019573        0.00019117        0.00038690
        -20.41231231        0.00054747        0.00054253        0.00109001
        -20.35165165        0.00104943        0.00104743        0.00209686
        -20.29099099        0.00165110        0.00164816        0.00329926
        -20.23033033        0.00235046        0.00234227        0.00469273
        -20.16966967        0.00303821        0.00302592        0.00606413
        -20.10900901        0.00334457        0.00333248        0.00667705
        -20.04834835        0.00309465        0.00308720        0.00618185
        -19.98768769        0.00263693        0.00263377        0.00527070
        -19.92702703        0.00233767        0.00233406        0.00467174
        -19.86636637        0.00222147        0.00221649        0.00443796
        -19.80570571        0.00211573        0.00211174        0.00422747
        -19.74504505        0.00194844        0.00194595        0.00389439
        -19.68438438        0.00176268        0.00176071        0.00352339
        -19.62372372        0.00164837        0.00164640        0.00329477
        -19.56306306        0.00158354        0.00158158        0.00316512
        -19.50240240        0.00148919        0.00148704        0.00297623
        -19.44174174        0.00139189        0.00138961        0.00278150
        -19.38108108        0.00135803        0.00135589        0.00271392
        -19.32042042        0.00137081        0.00136847        0.00273928
        -19.25975976        0.00139815        0.00139532        0.00279347
        -19.19909910        0.00141948        0.00141662        0.00283610
        -19.13843844        0.00140676        0.00140445        0.00281121
        -19.07777778        0.00134157        0.00133975        0.00268133
        -19.01711712        0.00128064        0.00127886        0.00255950
        -18.95645646        0.00128229        0.00128038        0.00256268
        -18.89579580        0.00130136        0.00129916        0.00260052
        -18.83513514        0.00130543        0.00130279        0.00260821
        -18.77447447        0.00133530        0.00133241        0.00266771
        -18.71381381        0.00137768        0.00137475        0.00275242
        -18.65315315        0.00141111        0.00140800        0.00281912
        -18.59249249        0.00144020        0.00143701        0.00287721
        -18.53183183        0.00147161        0.00146805        0.00293966
        -18.47117117        0.00153088        0.00152599        0.00305687
        -18.41051051        0.00162976        0.00162339        0.00325315
        -18.34984985        0.00174629        0.00173928        0.00348557
        -18.28918919        0.00178819        0.00178142        0.00356960
        -18.22852853        0.00173506        0.00172845        0.00346351
        -18.16786787        0.00176827        0.00176230        0.00353057
        -18.10720721        0.00189023        0.00188634        0.00377657
        -18.04654655        0.00180540        0.00180309        0.00360849
        -17.98588589        0.00139297        0.00139145        0.00278442
        -17.92522523        0.00085663        0.00085619        0.00171282
        -17.86456456        0.00044924        0.00044964        0.00089888
        -17.80390390        0.00034788        0.00034851        0.00069639
        -17.74324324        0.00047738        0.00047777        0.00095516
        -17.68258258        0.00043962        0.00043958        0.00087919
        -17.62192192        0.00020088        0.00020070        0.00040158
        -17.56126126        0.00004411        0.00004404        0.00008815
        -17.50060060        0.00000464        0.00000463        0.00000927
        -17.43993994        0.00000023        0.00000023        0.00000047
        -17.37927928        0.00000000        0.00000000        0.00000000
        -17.31861862        0.00000010        0.00000010        0.00000020
        -17.25795796        0.00000342        0.00000344        0.00000686
        -17.19729730        0.00005415        0.00005430        0.00010845
        -17.13663664        0.00042038        0.00042001        0.00084039
        -17.07597598        0.00163750        0.00163149        0.00326899
        -17.01531532        0.00341201        0.00339492        0.00680693
        -16.95465465        0.00464916        0.00462788        0.00927704
        -16.89399399        0.00600324        0.00598080        0.01198404
        -16.83333333        0.00766548        0.00764461        0.01531009
        -16.77267267        0.00740196        0.00739253        0.01479449
        -16.71201201        0.00552043        0.00551274        0.01103316
        -16.65135135        0.00477345        0.00475928        0.00953273
        -16.59069069        0.00519847        0.00518743        0.01038590
        -16.53003003        0.00519092        0.00518202        0.01037293
        -16.46936937        0.00481915        0.00480542        0.00962458
        -16.40870871        0.00470999        0.00469773        0.00940772
        -16.34804805        0.00485017        0.00484310        0.00969327
        -16.28738739        0.00507734        0.00507092        0.01014826
        -16.22672673        0.00518183        0.00517300        0.01035483
        -16.16606607        0.00526173        0.00525117        0.01051289
        -16.10540541        0.00539042        0.00537918        0.01076960
        -16.04474474        0.00556693        0.00555386        0.01112079
        -15.98408408        0.00596539        0.00595204        0.01191743
        -15.92342342        0.00660864        0.00659615        0.01320479
        -15.86276276        0.00727522        0.00726182        0.01453704
        -15.80210210        0.00799553        0.00797977        0.01597530
        -15.74144144        0.00875958        0.00874187        0.01750144
        -15.68078078        0.00915298        0.00913515        0.01828813
        -15.62012012        0.00910118        0.00908407        0.01818525
        -15.55945946        0.00953722        0.00952363        0.01906085
        -15.49879880        0.01106698        0.01105952        0.02212650
        -15.43813814        0.01273105        0.01272493        0.02545598
        -15.37747748        0.01336957        0.01335761        0.02672719
        -15.31681682        0.01265332        0.01263746        0.02529078
        -15.25615616        0.01195540        0.01193976        0.02389516
        -15.19549550        0.01371339        0.01369612        0.02740951
        -15.13483483        0.01673614        0.01671608        0.03345222
        -15.07417417        0.01700569        0.01698018        0.03398587
        -15.01351351        0.01475387        0.01471789        0.02947175
        -14.95285285        0.01312418        0.01308579        0.02620996
        -14.89219219        0.01241933        0.01239630        0.02481563
        -14.83153153        0.01153159        0.01152700        0.02305859
        -14.77087087        0.00967986        0.00968450        0.01936436
        -14.71021021        0.00702021        0.00702305        0.01404326
        -14.64954955        0.00520262        0.00520035        0.01040296
        -14.58888889        0.00420730        0.00420342        0.00841073
        -14.52822823        0.00270047        0.00269754        0.00539802
        -14.46756757        0.00116110        0.00115983        0.00232094
        -14.40690691        0.00034614        0.00034583        0.00069197
        -14.34624625        0.00007010        0.00007005        0.00014015
        -14.28558559        0.00000838        0.00000837        0.00001675
        -14.22492492        0.00000067        0.00000052        0.00000119
        -14.16426426        0.00000666        0.00000530        0.00001196
        -14.10360360        0.00013589        0.00011563        0.00025152
        -14.04294294        0.00142049        0.00128484        0.00270533
        -13.98228228        0.00802629        0.00763423        0.01566053
        -13.92162162        0.02559013        0.02515689        0.05074702
        -13.86096096        0.04805897        0.04798613        0.09604510
        -13.80030030        0.05905814        0.05922671        0.11828485
        -13.73963964        0.06235709        0.06250485        0.12486194
        -13.67897898        0.06875226        0.06877393        0.13752619
        -13.61831832        0.07017180        0.07004403        0.14021583
        -13.55765766        0.06605274        0.06582478        0.13187753
        -13.49699700        0.06272277        0.06249212        0.12521488
        -13.43633634        0.05794823        0.05779280        0.11574103
        -13.37567568        0.05087272        0.05080158        0.10167430
        -13.31501502        0.04512861        0.04509606        0.09022466
        -13.25435435        0.04380687        0.04376883        0.08757570
        -13.19369369        0.04721698        0.04715401        0.09437099
        -13.13303303        0.05076290        0.05069049        0.10145339
        -13.07237237        0.04871552        0.04865538        0.09737090
        -13.01171171        0.04328379        0.04320514        0.08648894
        -12.95105105        0.04024982        0.04010819        0.08035801
        -12.89039039        0.03827989        0.03813074        0.07641063
        -12.82972973        0.03342348        0.03337361        0.06679709
        -12.76906907        0.02867926        0.02870296        0.05738222
        -12.70840841        0.02779163        0.02780218        0.05559381
        -12.64774775        0.02943371        0.02941591        0.05884962
        -12.58708709        0.02985385        0.02982415        0.05967800
        -12.52642643        0.02554354        0.02550503        0.05104857
        -12.46576577        0.01994574        0.01989695        0.03984269
        -12.40510511        0.01628012        0.01624063        0.03252075
        -12.34444444        0.01326271        0.01325138        0.02651409
        -12.28378378        0.01233286        0.01233397        0.02466683
        -12.22312312        0.01394062        0.01392761        0.02786823
        -12.16246246        0.01469805        0.01462615        0.02932420
        -12.10180180        0.01513428        0.01497665        0.03011092
        -12.04114114        0.02268350        0.02243590        0.04511940
        -11.98048048        0.03706363        0.03672406        0.07378769
        -11.91981982        0.04446478        0.04419304        0.08865782
        -11.85915916        0.04368344        0.04357692        0.08726036
        -11.79849850        0.04364626        0.04360723        0.08725349
        -11.73783784        0.04570023        0.04566645        0.09136668
        -11.67717718        0.05244578        0.05239561        0.10484138
        -11.61651652        0.06269808        0.06264967        0.12534776
        -11.55585586        0.07375212        0.07366606        0.14741818
        -11.49519520        0.08469610        0.08446853        0.16916463
        -11.43453453        0.08728381        0.08696571        0.17424952
        -11.37387387        0.07990891        0.07964292        0.15955183
        -11.31321321        0.07328856        0.07308360        0.14637216
        -11.25255255        0.07264575        0.07247810        0.14512385
        -11.19189189        0.07808838        0.07794712        0.15603550
        -11.13123123        0.08716429        0.08707502        0.17423931
        -11.07057057        0.08757005        0.08759152        0.17516157
        -11.00990991        0.07341205        0.07348690        0.14689895
        -10.94924925        0.06245570        0.06243364        0.12488935
        -10.88858859        0.06301940        0.06274268        0.12576209
        -10.82792793        0.06226805        0.06178957        0.12405763
        -10.76726727        0.06450798        0.06398124        0.12848922
        -10.70660661        0.09032934        0.08970805        0.18003739
        -10.64594595        0.13912361        0.13843050        0.27755410
        -10.58528529        0.17541561        0.17466096        0.35007657
        -10.52462462        0.18193909        0.18100556        0.36294465
        -10.46396396        0.18482108        0.18380917        0.36863026
        -10.40330330        0.19425217        0.19351164        0.38776382
        -10.34264264        0.18534603        0.18526426        0.37061029
        -10.28198198        0.15918522        0.15926436        0.31844958
        -10.22132132        0.14151415        0.14124459        0.28275874
        -10.16066066        0.12745422        0.12699833        0.25445255
        -10.10000000        0.11005213        0.10951392        0.21956605
        -10.03933934        0.10606802        0.10548866        0.21155668
         -9.97867868        0.12449899        0.12395652        0.24845550
         -9.91801802        0.15401156        0.15333136        0.30734292
         -9.85735736        0.18891806        0.18777146        0.37668952
         -9.79669670        0.22944748        0.22813459        0.45758207
         -9.73603604        0.26084274        0.25991577        0.52075851
         -9.67537538        0.28249151        0.28168741        0.56417892
         -9.61471471        0.29260963        0.29146265        0.58407228
         -9.55405405        0.29004103        0.28844688        0.57848790
         -9.49339339        0.30988212        0.30775847        0.61764058
         -9.43273273        0.35055423        0.34801613        0.69857036
         -9.37207207        0.37375641        0.37126312        0.74501952
         -9.31141141        0.39897701        0.39669031        0.79566732
         -9.25075075        0.45205431        0.44964302        0.90169733
         -9.19009009        0.51147482        0.50843063        1.01990545
         -9.12942943        0.56478549        0.56120023        1.12598571
         -9.06876877        0.60127788        0.59825233        1.19953021
         -9.00810811        0.61410473        0.61215183        1.22625657
         -8.94744745        0.62857870        0.62661767        1.25519636
         -8.88678679        0.65059280        0.64753460        1.29812740
         -8.82612613        0.66890448        0.66501149        1.33391597
         -8.76546547        0.66823165        0.66522519        1.33345683
         -8.70480480        0.62241078        0.62092833        1.24333911
         -8.64414414        0.56498361        0.56380541        1.12878902
         -8.58348348        0.53067845        0.52917772        1.05985617
         -8.52282282        0.49732559        0.49550847        0.99283406
         -8.46216216        0.45764539        0.45712942        0.91477481
         -8.40150150        0.45841078        0.46407018        0.92248096
         -8.34084084        0.52334418        0.53861951        1.06196369
         -8.28018018        0.61505853        0.62993823        1.24499676
         -8.21951952        0.63315524        0.62881766        1.26197291
         -8.15885886        0.54025613        0.52005145        1.06030758
         -8.09819820        0.50404523        0.47872189        0.98276712
         -8.03753754        0.63086436        0.57901335        1.20987771
         -7.97687688        0.95955914        0.83229324        1.79185239
         -7.91621622        1.45144049        1.26984206        2.72128255
         -7.85555556        1.81472645        1.73109528        3.54582174
         -7.79489489        1.98160028        2.06357630        4.04517658
         -7.73423423        2.48290465        2.64082752        5.12373217
         -7.67357357        4.18626619        4.38973840        8.57600459
         -7.61291291        8.41887990        8.67352584       17.09240574
         -7.55225225       16.67739435       16.69193069       33.36932504
         -7.49159159       28.73658874       27.59084829       56.32743703
         -7.43093093       39.39207860       36.41849643       75.81057503
         -7.37027027       42.80017909       39.74852608       82.54870516
         -7.30960961       39.30155271       39.38483130       78.68638400
         -7.24894895       31.29884792       34.26041702       65.55926494
         -7.18828829       22.42994028       24.45790059       46.88784087
         -7.12762763       20.84973014       20.20906663       41.05879677
         -7.06696697       26.51421665       25.61183747       52.12605412
         -7.00630631       29.71065179       30.51892910       60.22958090
         -6.94564565       32.68404404       33.36296527       66.04700931
         -6.88498498       37.53266534       37.03598594       74.56865127
         -6.82432432       39.78861774       38.59494241       78.38356015
         -6.76366366       43.45055826       41.96236889       85.41292716
         -6.70300300       48.61384716       47.79579718       96.40964434
         -6.64234234       49.49941543       50.39565507       99.89507050
         -6.58168168       50.99512717       52.69475755      103.68988472
         -6.52102102       55.56762534       56.26968493      111.83731027
         -6.46036036       58.95197173       58.34857744      117.30054917
         -6.39969970       64.76180895       63.29385650      128.05566544
         -6.33903904       71.61862621       70.39594767      142.01457388
         -6.27837838       70.18425552       70.44630647      140.63056198
         -6.21771772       66.21265713       66.95642383      133.16908095
         -6.15705706       71.05087670       70.42411978      141.47499648