#            ENERGY              s1              s2              total
        -30.30000000        0.00000000        0.00000000        0.00000000
        -30.23933934        0.00000052        0.00000053        0.00000105
        -30.17867868        0.00002559        0.00002454        0.00005013
        -30.11801802        0.00044159        0.00042507        0.00086665
        -30.05735736        0.00383476        0.00371962        0.00755438
        -29.99669670        0.01714757        0.01681302        0.03396059
        -29.93603604        0.04134002        0.04102522        0.08236524
        -29.87537538        0.05947690        0.05960806        0.11908496
        -29.81471471        0.06220611        0.06254042        0.12474654
        -29.75405405        0.06018369        0.06030630        0.12048999
        -29.69339339        0.06248852        0.06241006        0.12489858
        -29.63273273        0.06515133        0.06507942        0.13023075
        -29.57207207        0.06184317        0.06182211        0.12366528
        -29.51141141        0.06092213        0.06075327        0.12167540
        -29.45075075        0.06485899        0.06454828        0.12940727
        -29.39009009        0.06026046        0.06017936        0.12043981
        -29.32942943        0.04055417        0.04074510        0.08129926
        -29.26876877        0.02108518        0.02128958        0.04237476
        -29.20810811        0.01139720        0.01153690        0.02293410
        -29.14744745        0.00856998        0.00864231        0.01721229
        -29.08678679        0.00870757        0.00872784        0.01743541
        -29.02612613        0.00700557        0.00699849        0.01400405
        -28.96546547        0.00326980        0.00325956        0.00652936
        -28.90480480        0.00091300        0.00090928        0.00182228
        -28.84414414        0.00023005        0.00022948        0.00045953
        -28.78348348        0.00006115        0.00006110        0.00012225
        -28.72282282        0.00001055        0.00001055        0.00002110
        -28.66216216        0.00000092        0.00000092        0.00000184
        -28.60150150        0.00000004        0.00000004        0.00000008
        -28.54084084        0.00000000        0.00000000        0.00000000
        -28.48018018        0.00000000        0.00000000        0.00000000
        -28.41951952        0.00000000        0.00000000        0.00000000
        -28.35885886        0.00000000        0.00000000        0.00000000
        -28.29819820        0.00000000        0.00000000        0.00000000
        -28.23753754        0.00000000        0.00000000        0.00000000
        -28.17687688        0.00000000        0.00000000        0.00000000
        -28.11621622        0.00000000        0.00000000        0.00000000
        -28.05555556        0.00000000        0.00000000        0.00000000
        -27.99489489        0.00000000        0.00000000        0.00000000
        -27.93423423        0.00000000        0.00000000        0.00000000
        -27.87357357        0.00000000        0.00000000        0.00000000
        -27.81291291        0.00000000        0.00000000        0.00000000
        -27.75225225        0.00000000        0.00000000        0.00000000
        -27.69159159        0.00000000        0.00000000        0.00000000
        -27.63093093        0.00000000        0.00000000        0.00000000
        -27.57027027        0.00000000        0.00000000        0.00000000
        -27.50960961        0.00000000        0.00000000        0.00000000
        -27.44894895        0.00000000        0.00000000        0.00000000
        -27.38828829        0.00000000        0.00000000        0.00000000
        -27.32762763        0.00000000        0.00000000        0.00000000
        -27.26696697        0.00000000        0.00000000        0.00000000
        -27.20630631        0.00000000        0.00000000        0.00000000
        -27.14564565        0.00000000        0.00000000        0.00000000
        -27.08498498        0.00000000        0.00000000        0.00000000
        -27.02432432        0.00000000        0.00000000        0.00000000
        -26.96366366        0.00000000        0.00000000        0.00000000
        -26.90300300        0.00000000        0.00000000        0.00000000
        -26.84234234        0.00000000        0.00000000        0.00000000
        -26.78168168        0.00000000        0.00000000        0.00000000
        -26.72102102        0.00000000        0.00000000        0.00000000
        -26.66036036        0.00000000        0.00000000        0.00000000
        -26.59969970        0.00000000        0.00000000        0.00000000
        -26.53903904        0.00000000        0.00000000        0.00000000
        -26.47837838        0.00000000        0.00000000        0.00000000
        -26.41771772        0.00000000        0.00000000        0.00000000
        -26.35705706        0.00000000        0.00000000        0.00000000
        -26.29639640        0.00000000        0.00000000        0.00000000
        -26.23573574        0.00000000        0.00000000        0.00000000
        -26.17507508        0.00000000        0.00000000        0.00000000
        -26.11441441        0.00000000        0.00000000        0.00000000
        -26.05375375        0.00000000        0.00000000        0.00000000
        -25.99309309        0.00000000        0.00000000        0.00000000
        -25.93243243        0.00000000        0.00000000        0.00000000
        -25.87177177        0.00000000        0.00000000        0.00000000
        -25.81111111        0.00000000        0.00000000        0.00000000
        -25.75045045        0.00000000        0.00000000        0.00000000
        -25.68978979        0.00000000        0.00000000        0.00000000
        -25.62912913        0.00000000        0.00000000        0.00000000
        -25.56846847        0.00000000        0.00000000        0.00000000
        -25.50780781        0.00000000        0.00000000        0.00000000
        -25.44714715        0.00000000        0.00000000        0.00000000
        -25.38648649        0.00000000        0.00000000        0.00000000
        -25.32582583        0.00000000        0.00000000        0.00000000
        -25.26516517        0.00000000        0.00000000        0.00000000
        -25.20450450        0.00000000        0.00000000        0.00000000
        -25.14384384        0.00000000        0.00000000        0.00000000
        -25.08318318        0.00000000        0.00000000        0.00000000
        -25.02252252        0.00000000        0.00000000        0.00000000
        -24.96186186        0.00000000        0.00000000        0.00000000
        -24.90120120        0.00000000        0.00000000        0.00000000
        -24.84054054        0.00000000        0.00000000        0.00000000
        -24.77987988        0.00000000        0.00000000        0.00000000
        -24.71921922        0.00000000        0.00000000        0.00000000
        -24.65855856        0.00000000        0.00000000        0.00000000
        -24.59789790        0.00000000        0.00000000        0.00000000
        -24.53723724        0.00000000        0.00000000        0.00000000
        -24.47657658        0.00000000        0.00000000        0.00000000
        -24.41591592        0.00000000        0.00000000        0.00000000
        -24.35525526        0.00000000        0.00000000        0.00000000
        -24.29459459        0.00000000        0.00000000        0.00000000
        -24.23393393        0.00000000        0.00000000        0.00000000
        -24.17327327        0.00000000        0.00000000        0.00000000
        -24.11261261        0.00000000        0.00000000        0.00000000
        -24.05195195        0.00000000        0.00000000        0.00000000
        -23.99129129        0.00000000        0.00000000        0.00000000
        -23.93063063        0.00000000        0.00000000        0.00000000
        -23.86996997        0.00000000        0.00000000        0.00000000
        -23.80930931        0.00000000        0.00000000        0.00000000
        -23.74864865        0.00000000        0.00000000        0.00000000
        -23.68798799        0.00000000        0.00000000        0.00000000
        -23.62732733        0.00000000        0.00000000        0.00000000
        -23.56666667        0.00000000        0.00000000        0.00000000
        -23.50600601        0.00000000        0.00000000        0.00000000
        -23.44534535        0.00000000        0.00000000        0.00000000
        -23.38468468        0.00000000        0.00000000        0.00000000
        -23.32402402        0.00000000        0.00000000        0.00000000
        -23.26336336        0.00000000        0.00000000        0.00000000
        -23.20270270        0.00000000        0.00000000        0.00000000
        -23.14204204        0.00000000        0.00000000        0.00000000
        -23.08138138        0.00000000        0.00000000        0.00000000
        -23.02072072        0.00000000        0.00000000        0.00000000
        -22.96006006        0.00000000        0.00000000        0.00000000
        -22.89939940        0.00000000        0.00000000        0.00000000
        -22.83873874        0.00000000        0.00000000        0.00000000
        -22.77807808        0.00000000        0.00000000        0.00000000
        -22.71741742        0.00000000        0.00000000        0.00000000
        -22.65675676        0.00000000        0.00000000        0.00000000
        -22.59609610        0.00000000        0.00000000        0.00000000
        -22.53543544        0.00000000        0.00000000        0.00000000
        -22.47477477        0.00000000        0.00000000        0.00000000
        -22.41411411        0.00000000        0.00000000        0.00000000
        -22.35345345        0.00000000        0.00000000        0.00000000
        -22.29279279        0.00000000        0.00000000        0.00000000
        -22.23213213        0.00000000        0.00000000        0.00000000
        -22.17147147        0.00000000        0.00000000        0.00000000
        -22.11081081        0.00000000        0.00000000        0.00000000
        -22.05015015        0.00000000        0.00000000        0.00000000
        -21.98948949        0.00000000        0.00000000        0.00000000
        -21.92882883        0.00000000        0.00000000        0.00000000
        -21.86816817        0.00000000        0.00000000        0.00000000
        -21.80750751        0.00000000        0.00000000        0.00000000
        -21.74684685        0.00000000        0.00000000        0.00000000
        -21.68618619        0.00000000        0.00000000        0.00000000
        -21.62552553        0.00000000        0.00000000        0.00000000
        -21.56486486        0.00000000        0.00000000        0.00000000
        -21.50420420        0.00000000        0.00000000        0.00000000
        -21.44354354        0.00000000        0.00000000        0.00000000
        -21.38288288        0.00000000        0.00000000        0.00000000
        -21.32222222        0.00000000        0.00000000        0.00000000
        -21.26156156        0.00000000        0.00000000        0.00000000
        -21.20090090        0.00000000        0.00000000        0.00000000
        -21.14024024        0.00000000        0.00000000        0.00000000
        -21.07957958        0.00000000        0.00000000        0.00000000
        -21.01891892        0.00000000        0.00000000        0.00000000
        -20.95825826        0.00000000        0.00000000        0.00000000
        -20.89759760        0.00000000        0.00000000        0.00000000
        -20.83693694        0.00000000        0.00000000        0.00000000
        -20.77627628        0.00000000        0.00000000        0.00000000
        -20.71561562        0.00000004        0.00000003        0.00000007
        -20.65495495        0.00000131        0.00000121        0.00000252
        -20.59429429        0.00002319        0.00002178        0.00004497
        -20.53363363        0.00020702        0.00019812        0.00040515
        -20.47297297        0.00097407        0.00094940        0.00192347
        -20.41231231        0.00267124        0.00264326        0.00531451
        -20.35165165        0.00514529        0.00513155        0.01027685
        -20.29099099        0.00843299        0.00841534        0.01684833
        -20.23033033        0.01232944        0.01228665        0.02461609
        -20.16966967        0.01583806        0.01576908        0.03160714
        -20.10900901        0.01750769        0.01742525        0.03493294
        -20.04834835        0.01686459        0.01679353        0.03365812
        -19.98768769        0.01524138        0.01519123        0.03043261
        -19.92702703        0.01417658        0.01412798        0.02830456
        -19.86636637        0.01413978        0.01408347        0.02822325
        -19.80570571        0.01449556        0.01444075        0.02893631
        -19.74504505        0.01459089        0.01454264        0.02913353
        -19.68438438        0.01413084        0.01408879        0.02821962
        -19.62372372        0.01354139        0.01350587        0.02704726
        -19.56306306        0.01310033        0.01307156        0.02617189
        -19.50240240        0.01242137        0.01239701        0.02481838
        -19.44174174        0.01124790        0.01122466        0.02247255
        -19.38108108        0.01032880        0.01030470        0.02063350
        -19.32042042        0.01031210        0.01028524        0.02059734
        -19.25975976        0.01085023        0.01082125        0.02167148
        -19.19909910        0.01126512        0.01123804        0.02250315
        -19.13843844        0.01128468        0.01126187        0.02254655
        -19.07777778        0.01074477        0.01072474        0.02146952
        -19.01711712        0.01002941        0.01001027        0.02003968
        -18.95645646        0.00977291        0.00975453        0.01952743
        -18.89579580        0.00979885        0.00978012        0.01957897
        -18.83513514        0.00973293        0.00971242        0.01944535
        -18.77447447        0.00976504        0.00974321        0.01950825
        -18.71381381        0.00996823        0.00994668        0.01991491
        -18.65315315        0.01010340        0.01008128        0.02018468
        -18.59249249        0.00995833        0.00993534        0.01989367
        -18.53183183        0.00986380        0.00983835        0.01970215
        -18.47117117        0.01011195        0.01007911        0.02019106
        -18.41051051        0.01037699        0.01033460        0.02071159
        -18.34984985        0.01062641        0.01057866        0.02120506
        -18.28918919        0.01084009        0.01079384        0.02163393
        -18.22852853        0.01091147        0.01086858        0.02178005
        -18.16786787        0.01158276        0.01154664        0.02312939
        -18.10720721        0.01299131        0.01296708        0.02595839
        -18.04654655        0.01302580        0.01300975        0.02603555
        -17.98588589        0.01026690        0.01025582        0.02052272
        -17.92522523        0.00640346        0.00639902        0.01280249
        -17.86456456        0.00335238        0.00335398        0.00670636
        -17.80390390        0.00232956        0.00233361        0.00466317
        -17.74324324        0.00296934        0.00297266        0.00594200
        -17.68258258        0.00270752        0.00270818        0.00541570
        -17.62192192        0.00123603        0.00123536        0.00247139
        -17.56126126        0.00027139        0.00027103        0.00054242
        -17.50060060        0.00002856        0.00002850        0.00005706
        -17.43993994        0.00000144        0.00000144        0.00000288
        -17.37927928        0.00000000        0.00000000        0.00000000
        -17.31861862        0.00000028        0.00000029        0.00000057
        -17.25795796        0.00001071        0.00001069        0.00002140
        -17.19729730        0.00017630        0.00017535        0.00035165
        -17.13663664        0.00144127        0.00142838        0.00286965
        -17.07597598        0.00599107        0.00592749        0.01191857
        -17.01531532        0.01342168        0.01329451        0.02671619
        -16.95465465        0.01930454        0.01919161        0.03849615
        -16.89399399        0.02507439        0.02499105        0.05006543
        -16.83333333        0.03224066        0.03215492        0.06439558
        -16.77267267        0.03228232        0.03222311        0.06450543
        -16.71201201        0.02514158        0.02507772        0.05021930
        -16.65135135        0.02172923        0.02162859        0.04335781
        -16.59069069        0.02264001        0.02255592        0.04519593
        -16.53003003        0.02221199        0.02214829        0.04436028
        -16.46936937        0.02149803        0.02141910        0.04291714
        -16.40870871        0.02198565        0.02191619        0.04390184
        -16.34804805        0.02264427        0.02259648        0.04524074
        -16.28738739        0.02343698        0.02338554        0.04682252
        -16.22672673        0.02407786        0.02400760        0.04808546
        -16.16606607        0.02500379        0.02492009        0.04992388
        -16.10540541        0.02696040        0.02687361        0.05383401
        -16.04474474        0.02927573        0.02918728        0.05846301
        -15.98408408        0.03112978        0.03104782        0.06217760
        -15.92342342        0.03297042        0.03289294        0.06586336
        -15.86276276        0.03492195        0.03483809        0.06976004
        -15.80210210        0.03823079        0.03813082        0.07636161
        -15.74144144        0.04364856        0.04352713        0.08717568
        -15.68078078        0.04839254        0.04826272        0.09665526
        -15.62012012        0.05124461        0.05112290        0.10236751
        -15.55945946        0.05727236        0.05718004        0.11445240
        -15.49879880        0.06861825        0.06856112        0.13717938
        -15.43813814        0.07795374        0.07789685        0.15585059
        -15.37747748        0.07981159        0.07971221        0.15952381
        -15.31681682        0.07517912        0.07503727        0.15021638
        -15.25615616        0.07341110        0.07323970        0.14665080
        -15.19549550        0.08772993        0.08751214        0.17524207
        -15.13483483        0.10923440        0.10896783        0.21820223
        -15.07417417        0.11194658        0.11165890        0.22360548
        -15.01351351        0.09577148        0.09546745        0.19123893
        -14.95285285        0.08169416        0.08139318        0.16308735
        -14.89219219        0.07634814        0.07612848        0.15247661
        -14.83153153        0.07436416        0.07427058        0.14863474
        -14.77087087        0.06699097        0.06699067        0.13398163
        -14.71021021        0.05189043        0.05190037        0.10379080
        -14.64954955        0.04102519        0.04100557        0.08203076
        -14.58888889        0.03453910        0.03450877        0.06904787
        -14.52822823        0.02254656        0.02252507        0.04507163
        -14.46756757        0.00988822        0.00987929        0.01976751
        -14.40690691        0.00304168        0.00303915        0.00608083
        -14.34624625        0.00063324        0.00063265        0.00126589
        -14.28558559        0.00007682        0.00007673        0.00015355
        -14.22492492        0.00000531        0.00000478        0.00001008
        -14.16426426        0.00002185        0.00001721        0.00003906
        -14.10360360        0.00043178        0.00036318        0.00079496
        -14.04294294        0.00435195        0.00389832        0.00825028
        -13.98228228        0.02340570        0.02213942        0.04554511
        -13.92162162        0.07070546        0.06946226        0.14016772
        -13.86096096        0.12752132        0.12755758        0.25507890
        -13.80030030        0.15665149        0.15720571        0.31385720
        -13.73963964        0.17405014        0.17425857        0.34830871
        -13.67897898        0.20121104        0.20105669        0.40226772
        -13.61831832        0.21071936        0.21020814        0.42092750
        -13.55765766        0.20373689        0.20287642        0.40661331
        -13.49699700        0.20166829        0.20068268        0.40235096
        -13.43633634        0.19650762        0.19575780        0.39226541
        -13.37567568        0.17761214        0.17726518        0.35487733
        -13.31501502        0.15370752        0.15361595        0.30732347
        -13.25435435        0.14091949        0.14085998        0.28177947
        -13.19369369        0.14389043        0.14373313        0.28762356
        -13.13303303        0.14868036        0.14846280        0.29714316
        -13.07237237        0.14093401        0.14075412        0.28168813
        -13.01171171        0.12737192        0.12716965        0.25454157
        -12.95105105        0.12115773        0.12082284        0.24198057
        -12.89039039        0.11658131        0.11622883        0.23281014
        -12.82972973        0.10371719        0.10359129        0.20730848
        -12.76906907        0.09048499        0.09056666        0.18105165
        -12.70840841        0.08650987        0.08657831        0.17308819
        -12.64774775        0.09137882        0.09134372        0.18272255
        -12.58708709        0.09504776        0.09493731        0.18998508
        -12.52642643        0.08303591        0.08289560        0.16593151
        -12.46576577        0.06334568        0.06320562        0.12655130
        -12.40510511        0.04902015        0.04891648        0.09793664
        -12.34444444        0.04097171        0.04092399        0.08189570
        -12.28378378        0.03874552        0.03870990        0.07745542
        -12.22312312        0.03815662        0.03808390        0.07624052
        -12.16246246        0.03502118        0.03485416        0.06987535
        -12.10180180        0.03588743        0.03559724        0.07148466
        -12.04114114        0.05499002        0.05452893        0.10951895
        -11.98048048        0.08769636        0.08698639        0.17468275
        -11.91981982        0.10446528        0.10390215        0.20836742
        -11.85915916        0.10387850        0.10373851        0.20761702
        -11.79849850        0.10362143        0.10357309        0.20719452
        -11.73783784        0.10674809        0.10659955        0.21334764
        -11.67717718        0.12089073        0.12065639        0.24154711
        -11.61651652        0.14128318        0.14109378        0.28237696
        -11.55585586        0.15572600        0.15560572        0.31133172
        -11.49519520        0.16536155        0.16514317        0.33050472
        -11.43453453        0.16549491        0.16513542        0.33063033
        -11.37387387        0.15922035        0.15877879        0.31799914
        -11.31321321        0.15724323        0.15674699        0.31399022
        -11.25255255        0.15688263        0.15641196        0.31329459
        -11.19189189        0.15864224        0.15820567        0.31684791
        -11.13123123        0.16548658        0.16513072        0.33061729
        -11.07057057        0.16264051        0.16252410        0.32516461
        -11.00990991        0.14055919        0.14065482        0.28121401
        -10.94924925        0.12427153        0.12436490        0.24863643
        -10.88858859        0.12192549        0.12174680        0.24367229
        -10.82792793        0.11047821        0.11000580        0.22048401
        -10.76726727        0.10256450        0.10194424        0.20450874
        -10.70660661        0.13513474        0.13423546        0.26937020
        -10.64594595        0.21382500        0.21270166        0.42652666
        -10.58528529        0.28659856        0.28540077        0.57199933
        -10.52462462        0.31035648        0.30911489        0.61947137
        -10.46396396        0.30973249        0.30883563        0.61856812
        -10.40330330        0.30302477        0.30269041        0.60571518
        -10.34264264        0.27162024        0.27187430        0.54349454
        -10.28198198        0.22837973        0.22858568        0.45696541
        -10.22132132        0.20122675        0.20101143        0.40223818
        -10.16066066        0.17691194        0.17657045        0.35348239
        -10.10000000        0.14399749        0.14373430        0.28773179
        -10.03933934        0.12197213        0.12188547        0.24385760
         -9.97867868        0.12699895        0.12697095        0.25396990
         -9.91801802        0.15457911        0.15420880        0.30878790
         -9.85735736        0.19126189        0.19025801        0.38151990
         -9.79669670        0.22863312        0.22748287        0.45611599
         -9.73603604        0.25819703        0.25746675        0.51566379
         -9.67537538        0.27904591        0.27843900        0.55748490
         -9.61471471        0.28362535        0.28283082        0.56645617
         -9.55405405        0.27257366        0.27155692        0.54413058
         -9.49339339        0.27699807        0.27547701        0.55247508
         -9.43273273        0.30175319        0.29961603        0.60136922
         -9.37207207        0.31121850        0.30933784        0.62055633
         -9.31141141        0.29756326        0.29654198        0.59410525
         -9.25075075        0.29060096        0.28989048        0.58049145
         -9.19009009        0.30159553        0.30070738        0.60230291
         -9.12942943        0.31955235        0.31855691        0.63810926
         -9.06876877        0.32421185        0.32345469        0.64766654
         -9.00810811        0.31316681        0.31269089        0.62585771
         -8.94744745        0.30578932        0.30517819        0.61096751
         -8.88678679        0.30488828        0.30391103        0.60879931
         -8.82612613        0.30575730        0.30454257        0.61029987
         -8.76546547        0.30538186        0.30444196        0.60982382
         -8.70480480        0.29123534        0.29099147        0.58222681
         -8.64414414        0.26978111        0.27012059        0.53990170
         -8.58348348        0.25016899        0.25083247        0.50100146
         -8.52282282        0.22681197        0.22774473        0.45455670
         -8.46216216        0.20768450        0.21046439        0.41814889
         -8.40150150        0.23511820        0.24452657        0.47964477
         -8.34084084        0.35650543        0.37642471        0.73293014
         -8.28018018        0.55438388        0.57241588        1.12679976
         -8.21951952        0.63157878        0.62406541        1.25564419
         -8.15885886        0.45844991        0.43264785        0.89109775
         -8.09819820        0.27587576        0.25069306        0.52656882
         -8.03753754        0.26843536        0.23103626        0.49947162
         -7.97687688        0.40871877        0.32880940        0.73752818
         -7.91621622        0.60193902        0.49330671        1.09524573
         -7.85555556        0.68441276        0.63532840        1.31974116
         -7.79489489        0.59873965        0.64647702        1.24521667
         -7.73423423        0.49801156        0.57826113        1.07627269
         -7.67357357        0.54601993        0.61381440        1.15983432
         -7.61291291        0.83508387        0.88914534        1.72422920
         -7.55225225        1.45086764        1.46762109        2.91848872
         -7.49159159        2.39803255        2.31519482        4.71322738
         -7.43093093        3.27813875        3.08521682        6.36335557
         -7.37027027        3.42502928        3.25966292        6.68469219
         -7.30960961        2.69658753        2.72970656        5.42629409
         -7.24894895        1.61030191        1.79916169        3.40946361
         -7.18828829        0.83557034        0.97571493        1.81128527
         -7.12762763        0.68110672        0.69813147        1.37923819
         -7.06696697        0.88402209        0.87117283        1.75519492
         -7.00630631        1.08191077        1.11965566        2.20156643
         -6.94564565        1.43693241        1.48248367        2.91941608
         -6.88498498        1.81218646        1.80832673        3.62051319
         -6.82432432        1.75453932        1.69544133        3.44998065
         -6.76366366        1.57633520        1.49950983        3.07584503
         -6.70300300        1.53335513        1.48485015        3.01820528
         -6.64234234        1.35931817        1.36863963        2.72795780
         -6.58168168        1.20511646        1.25404514        2.45916160
         -6.52102102        1.34922762        1.39166577        2.74089339
         -6.46036036        1.62508789        1.63399028        3.25907817
         -6.39969970        1.87787590        1.82533233        3.70320823
         -6.33903904        2.12322507        2.03032959        4.15355467
         -6.27837838        2.08391852        2.04975940        4.13367791
         -6.21771772        1.67211914        1.71137284        3.38349197
         -6.15705706        1.28939448        1.31234575        2.60174022