#            ENERGY              s1              s2              total
        -30.30000000        0.00000036        0.00000035        0.00000071
        -30.23933934        0.00001210        0.00001204        0.00002415
        -30.17867868        0.00020107        0.00020025        0.00040132
        -30.11801802        0.00166884        0.00166384        0.00333268
        -30.05735736        0.00733863        0.00732386        0.01466250
        -29.99669670        0.01948837        0.01945947        0.03894784
        -29.93603604        0.03735566        0.03730394        0.07465961
        -29.87537538        0.05498606        0.05492678        0.10991284
        -29.81471471        0.06016828        0.06012997        0.12029825
        -29.75405405        0.05507534        0.05504881        0.11012414
        -29.69339339        0.05271974        0.05272291        0.10544265
        -29.63273273        0.05256291        0.05260404        0.10516694
        -29.57207207        0.04800915        0.04804263        0.09605178
        -29.51141141        0.03836295        0.03837381        0.07673676
        -29.45075075        0.02978780        0.02979282        0.05958062
        -29.39009009        0.02614514        0.02614879        0.05229393
        -29.32942943        0.02094995        0.02095774        0.04190769
        -29.26876877        0.01243632        0.01244173        0.02487806
        -29.20810811        0.00853232        0.00852855        0.01706087
        -29.14744745        0.00911381        0.00911293        0.01822674
        -29.08678679        0.00724639        0.00725304        0.01449942
        -29.02612613        0.00313310        0.00313827        0.00627136
        -28.96546547        0.00070175        0.00070316        0.00140491
        -28.90480480        0.00008065        0.00008081        0.00016146
        -28.84414414        0.00000478        0.00000479        0.00000956
        -28.78348348        0.00000014        0.00000014        0.00000028
        -28.72282282        0.00000000        0.00000000        0.00000000
        -28.66216216        0.00000000        0.00000000        0.00000000
        -28.60150150       -0.00000000       -0.00000000       -0.00000000
        -28.54084084        0.00000000        0.00000000        0.00000000
        -28.48018018        0.00000000        0.00000000        0.00000000
        -28.41951952        0.00000000        0.00000000        0.00000000
        -28.35885886        0.00000000        0.00000000        0.00000000
        -28.29819820        0.00000000        0.00000000        0.00000000
        -28.23753754        0.00000000        0.00000000        0.00000000
        -28.17687688        0.00000000        0.00000000        0.00000000
        -28.11621622        0.00000000        0.00000000        0.00000000
        -28.05555556        0.00000000        0.00000000        0.00000000
        -27.99489489        0.00000000        0.00000000        0.00000000
        -27.93423423        0.00000000        0.00000000        0.00000000
        -27.87357357        0.00000000        0.00000000        0.00000000
        -27.81291291        0.00000000        0.00000000        0.00000000
        -27.75225225        0.00000000        0.00000000        0.00000000
        -27.69159159        0.00000000        0.00000000        0.00000000
        -27.63093093        0.00000000        0.00000000        0.00000000
        -27.57027027        0.00000000        0.00000000        0.00000000
        -27.50960961        0.00000000        0.00000000        0.00000000
        -27.44894895        0.00000000        0.00000000        0.00000000
        -27.38828829        0.00000000        0.00000000        0.00000000
        -27.32762763        0.00000000        0.00000000        0.00000000
        -27.26696697        0.00000000        0.00000000        0.00000000
        -27.20630631        0.00000000        0.00000000        0.00000000
        -27.14564565        0.00000000        0.00000000        0.00000000
        -27.08498498        0.00000000        0.00000000        0.00000000
        -27.02432432        0.00000000        0.00000000        0.00000000
        -26.96366366        0.00000000        0.00000000        0.00000000
        -26.90300300        0.00000000        0.00000000        0.00000000
        -26.84234234        0.00000000        0.00000000        0.00000000
        -26.78168168        0.00000000        0.00000000        0.00000000
        -26.72102102        0.00000000        0.00000000        0.00000000
        -26.66036036        0.00000000        0.00000000        0.00000000
        -26.59969970        0.00000000        0.00000000        0.00000000
        -26.53903904        0.00000000        0.00000000        0.00000000
        -26.47837838        0.00000000        0.00000000        0.00000000
        -26.41771772        0.00000000        0.00000000        0.00000000
        -26.35705706        0.00000000        0.00000000        0.00000000
        -26.29639640        0.00000000        0.00000000        0.00000000
        -26.23573574        0.00000000        0.00000000        0.00000000
        -26.17507508        0.00000000        0.00000000        0.00000000
        -26.11441441        0.00000000        0.00000000        0.00000000
        -26.05375375        0.00000000        0.00000000        0.00000000
        -25.99309309        0.00000000        0.00000000        0.00000000
        -25.93243243        0.00000000        0.00000000        0.00000000
        -25.87177177        0.00000000        0.00000000        0.00000000
        -25.81111111        0.00000000        0.00000000        0.00000000
        -25.75045045        0.00000000        0.00000000        0.00000000
        -25.68978979        0.00000000        0.00000000        0.00000000
        -25.62912913        0.00000000        0.00000000        0.00000000
        -25.56846847        0.00000000        0.00000000        0.00000000
        -25.50780781        0.00000000        0.00000000        0.00000000
        -25.44714715        0.00000000        0.00000000        0.00000000
        -25.38648649        0.00000000        0.00000000        0.00000000
        -25.32582583        0.00000000        0.00000000        0.00000000
        -25.26516517        0.00000000        0.00000000        0.00000000
        -25.20450450        0.00000000        0.00000000        0.00000000
        -25.14384384        0.00000000        0.00000000        0.00000000
        -25.08318318        0.00000000        0.00000000        0.00000000
        -25.02252252        0.00000000        0.00000000        0.00000000
        -24.96186186        0.00000000        0.00000000        0.00000000
        -24.90120120        0.00000000        0.00000000        0.00000000
        -24.84054054        0.00000000        0.00000000        0.00000000
        -24.77987988        0.00000000        0.00000000        0.00000000
        -24.71921922        0.00000000        0.00000000        0.00000000
        -24.65855856        0.00000000        0.00000000        0.00000000
        -24.59789790        0.00000000        0.00000000        0.00000000
        -24.53723724        0.00000000        0.00000000        0.00000000
        -24.47657658        0.00000000        0.00000000        0.00000000
        -24.41591592        0.00000000        0.00000000        0.00000000
        -24.35525526        0.00000000        0.00000000        0.00000000
        -24.29459459        0.00000000        0.00000000        0.00000000
        -24.23393393        0.00000000        0.00000000        0.00000000
        -24.17327327        0.00000000        0.00000000        0.00000000
        -24.11261261        0.00000000        0.00000000        0.00000000
        -24.05195195        0.00000000        0.00000000        0.00000000
        -23.99129129        0.00000000        0.00000000        0.00000000
        -23.93063063        0.00000000        0.00000000        0.00000000
        -23.86996997        0.00000000        0.00000000        0.00000000
        -23.80930931        0.00000000        0.00000000        0.00000000
        -23.74864865        0.00000000        0.00000000        0.00000000
        -23.68798799        0.00000000        0.00000000        0.00000000
        -23.62732733        0.00000000        0.00000000        0.00000000
        -23.56666667        0.00000000        0.00000000        0.00000000
        -23.50600601        0.00000000        0.00000000        0.00000000
        -23.44534535        0.00000000        0.00000000        0.00000000
        -23.38468468        0.00000000        0.00000000        0.00000000
        -23.32402402        0.00000000        0.00000000        0.00000000
        -23.26336336        0.00000000        0.00000000        0.00000000
        -23.20270270        0.00000000        0.00000000        0.00000000
        -23.14204204        0.00000000        0.00000000        0.00000000
        -23.08138138        0.00000000        0.00000000        0.00000000
        -23.02072072        0.00000000        0.00000000        0.00000000
        -22.96006006        0.00000000        0.00000000        0.00000000
        -22.89939940        0.00000000        0.00000000        0.00000000
        -22.83873874        0.00000000        0.00000000        0.00000000
        -22.77807808        0.00000000        0.00000000        0.00000000
        -22.71741742        0.00000000        0.00000000        0.00000000
        -22.65675676        0.00000000        0.00000000        0.00000000
        -22.59609610        0.00000000        0.00000000        0.00000000
        -22.53543544        0.00000000        0.00000000        0.00000000
        -22.47477477        0.00000000        0.00000000        0.00000000
        -22.41411411        0.00000000        0.00000000        0.00000000
        -22.35345345        0.00000000        0.00000000        0.00000000
        -22.29279279        0.00000000        0.00000000        0.00000000
        -22.23213213        0.00000000        0.00000000        0.00000000
        -22.17147147        0.00000000        0.00000000        0.00000000
        -22.11081081        0.00000000        0.00000000        0.00000000
        -22.05015015        0.00000000        0.00000000        0.00000000
        -21.98948949        0.00000000        0.00000000        0.00000000
        -21.92882883        0.00000000        0.00000000        0.00000000
        -21.86816817        0.00000000        0.00000000        0.00000000
        -21.80750751        0.00000000        0.00000000        0.00000000
        -21.74684685        0.00000000        0.00000000        0.00000000
        -21.68618619        0.00000000        0.00000000        0.00000000
        -21.62552553        0.00000000        0.00000000        0.00000000
        -21.56486486        0.00000000        0.00000000        0.00000000
        -21.50420420        0.00000000        0.00000000        0.00000000
        -21.44354354        0.00000000        0.00000000        0.00000000
        -21.38288288        0.00000000        0.00000000        0.00000000
        -21.32222222        0.00000000        0.00000000        0.00000000
        -21.26156156        0.00000000        0.00000000        0.00000000
        -21.20090090        0.00000000        0.00000000        0.00000000
        -21.14024024        0.00000000        0.00000000        0.00000000
        -21.07957958        0.00000000        0.00000000        0.00000000
        -21.01891892        0.00000000        0.00000000        0.00000000
        -20.95825826        0.00000000        0.00000000        0.00000000
        -20.89759760        0.00000000        0.00000000        0.00000000
        -20.83693694        0.00000000        0.00000000        0.00000000
        -20.77627628        0.00000102        0.00000101        0.00000203
        -20.71561562        0.00002190        0.00002179        0.00004369
        -20.65495495        0.00022894        0.00022805        0.00045699
        -20.59429429        0.00117742        0.00117403        0.00235145
        -20.53363363        0.00308333        0.00307742        0.00616074
        -20.47297297        0.00465324        0.00464789        0.00930113
        -20.41231231        0.00593330        0.00592784        0.01186114
        -20.35165165        0.00931188        0.00930103        0.01861291
        -20.29099099        0.01453710        0.01451814        0.02905524
        -20.23033033        0.01742810        0.01740684        0.03483494
        -20.16966967        0.01543460        0.01541726        0.03085186
        -20.10900901        0.01334300        0.01332514        0.02666814
        -20.04834835        0.01426652        0.01424583        0.02851235
        -19.98768769        0.01434678        0.01433074        0.02867752
        -19.92702703        0.01245805        0.01244656        0.02490460
        -19.86636637        0.01182514        0.01181205        0.02363720
        -19.80570571        0.01233683        0.01232292        0.02465975
        -19.74504505        0.01179784        0.01178574        0.02358359
        -19.68438438        0.01080365        0.01079217        0.02159582
        -19.62372372        0.01067801        0.01066619        0.02134419
        -19.56306306        0.01088198        0.01087051        0.02175249
        -19.50240240        0.01061290        0.01060247        0.02121537
        -19.44174174        0.00996498        0.00995551        0.01992049
        -19.38108108        0.00938360        0.00937421        0.01875782
        -19.32042042        0.00922474        0.00921501        0.01843975
        -19.25975976        0.00944668        0.00943694        0.01888362
        -19.19909910        0.00944808        0.00943877        0.01888685
        -19.13843844        0.00907695        0.00906828        0.01814523
        -19.07777778        0.00887680        0.00886857        0.01774537
        -19.01711712        0.00888627        0.00887816        0.01776443
        -18.95645646        0.00893108        0.00892267        0.01785374
        -18.89579580        0.00900566        0.00899719        0.01800285
        -18.83513514        0.00889610        0.00888828        0.01778439
        -18.77447447        0.00858960        0.00858230        0.01717190
        -18.71381381        0.00834540        0.00833788        0.01668328
        -18.65315315        0.00826060        0.00825251        0.01651311
        -18.59249249        0.00818502        0.00817647        0.01636149
        -18.53183183        0.00809994        0.00809160        0.01619154
        -18.47117117        0.00819062        0.00818273        0.01637335
        -18.41051051        0.00885133        0.00884305        0.01769438
        -18.34984985        0.00963851        0.00963055        0.01926907
        -18.28918919        0.00966672        0.00965983        0.01932655
        -18.22852853        0.00869792        0.00869123        0.01738914
        -18.16786787        0.00730011        0.00729311        0.01459323
        -18.10720721        0.00620696        0.00619987        0.01240682
        -18.04654655        0.00546493        0.00545948        0.01092442
        -17.98588589        0.00468644        0.00468349        0.00936992
        -17.92522523        0.00344670        0.00344460        0.00689130
        -17.86456456        0.00176486        0.00176335        0.00352821
        -17.80390390        0.00052012        0.00051956        0.00103968
        -17.74324324        0.00008012        0.00008002        0.00016014
        -17.68258258        0.00000627        0.00000626        0.00001254
        -17.62192192        0.00000026        0.00000026        0.00000051
        -17.56126126        0.00000000        0.00000000        0.00000000
        -17.50060060        0.00000000        0.00000000        0.00000000
        -17.43993994        0.00000000        0.00000000        0.00000000
        -17.37927928        0.00000000        0.00000000        0.00000000
        -17.31861862        0.00000066        0.00000066        0.00000132
        -17.25795796        0.00002356        0.00002342        0.00004698
        -17.19729730        0.00037695        0.00037518        0.00075213
        -17.13663664        0.00295725        0.00294678        0.00590403
        -17.07597598        0.01162648        0.01159780        0.02322427
        -17.01531532        0.02409962        0.02406255        0.04816217
        -16.95465465        0.02976631        0.02974099        0.05950729
        -16.89399399        0.02870830        0.02869132        0.05739962
        -16.83333333        0.03008216        0.03005933        0.06014150
        -16.77267267        0.03212070        0.03209558        0.06421627
        -16.71201201        0.02739355        0.02737723        0.05477078
        -16.65135135        0.02100898        0.02099749        0.04200648
        -16.59069069        0.01981208        0.01979672        0.03960880
        -16.53003003        0.02077744        0.02075843        0.04153588
        -16.46936937        0.02094579        0.02092675        0.04187255
        -16.40870871        0.02182587        0.02180622        0.04363208
        -16.34804805        0.02358009        0.02355884        0.04713893
        -16.28738739        0.02498644        0.02496536        0.04995180
        -16.22672673        0.02522148        0.02520387        0.05042535
        -16.16606607        0.02445304        0.02443688        0.04888991
        -16.10540541        0.02425269        0.02423380        0.04848649
        -16.04474474        0.02440516        0.02438429        0.04878945
        -15.98408408        0.02562233        0.02559867        0.05122099
        -15.92342342        0.03091546        0.03088502        0.06180049
        -15.86276276        0.03820854        0.03817417        0.07638271
        -15.80210210        0.04266104        0.04262706        0.08528811
        -15.74144144        0.04515200        0.04511631        0.09026831
        -15.68078078        0.04650661        0.04646875        0.09297536
        -15.62012012        0.04756089        0.04751659        0.09507748
        -15.55945946        0.05247228        0.05241369        0.10488596
        -15.49879880        0.06147087        0.06140370        0.12287458
        -15.43813814        0.06664177        0.06658261        0.13322438
        -15.37747748        0.06850797        0.06845114        0.13695911
        -15.31681682        0.07644240        0.07637333        0.15281573
        -15.25615616        0.08456335        0.08448095        0.16904430
        -15.19549550        0.08750573        0.08741252        0.17491824
        -15.13483483        0.08809620        0.08801925        0.17611546
        -15.07417417        0.08522732        0.08517218        0.17039950
        -15.01351351        0.08436536        0.08430875        0.16867411
        -14.95285285        0.08550902        0.08546072        0.17096974
        -14.89219219        0.07927063        0.07924333        0.15851396
        -14.83153153        0.06752664        0.06750402        0.13503066
        -14.77087087        0.05732327        0.05729491        0.11461817
        -14.71021021        0.04545694        0.04543492        0.09089185
        -14.64954955        0.03059793        0.03059200        0.06118992
        -14.58888889        0.01669147        0.01669780        0.03338927
        -14.52822823        0.00701994        0.00702591        0.01404584
        -14.46756757        0.00237780        0.00237935        0.00475714
        -14.40690691        0.00065318        0.00065321        0.00130639
        -14.34624625        0.00012183        0.00012179        0.00024362
        -14.28558559        0.00001794        0.00001786        0.00003580
        -14.22492492        0.00013110        0.00012940        0.00026050
        -14.16426426        0.00180412        0.00178724        0.00359135
        -14.10360360        0.01247097        0.01239608        0.02486705
        -14.04294294        0.04457108        0.04442688        0.08899797
        -13.98228228        0.08860731        0.08847802        0.17708533
        -13.92162162        0.11268056        0.11256297        0.22524353
        -13.86096096        0.11628419        0.11608355        0.23236774
        -13.80030030        0.13078481        0.13048629        0.26127110
        -13.73963964        0.16870704        0.16839605        0.33710309
        -13.67897898        0.20777014        0.20758037        0.41535051
        -13.61831832        0.21614561        0.21611903        0.43226464
        -13.55765766        0.18759708        0.18763570        0.37523277
        -13.49699700        0.14915013        0.14915367        0.29830380
        -13.43633634        0.12264858        0.12259818        0.24524676
        -13.37567568        0.11417189        0.11407404        0.22824593
        -13.31501502        0.11913523        0.11902580        0.23816103
        -13.25435435        0.12486898        0.12479564        0.24966462
        -13.19369369        0.12466093        0.12460739        0.24926833
        -13.13303303        0.11831502        0.11825977        0.23657480
        -13.07237237        0.10535788        0.10530939        0.21066727
        -13.01171171        0.09070977        0.09066872        0.18137849
        -12.95105105        0.08467724        0.08463199        0.16930923
        -12.89039039        0.08958073        0.08951511        0.17909584
        -12.82972973        0.09725744        0.09717119        0.19442862
        -12.76906907        0.09911071        0.09903583        0.19814654
        -12.70840841        0.09191405        0.09187628        0.18379033
        -12.64774775        0.08209793        0.08207592        0.16417384
        -12.58708709        0.07770946        0.07768318        0.15539265
        -12.52642643        0.07164703        0.07163006        0.14327708
        -12.46576577        0.05618803        0.05618202        0.11237005
        -12.40510511        0.03889804        0.03889192        0.07778995
        -12.34444444        0.02574282        0.02573784        0.05148066
        -12.28378378        0.01669432        0.01668849        0.03338281
        -12.22312312        0.01453939        0.01451820        0.02905759
        -12.16246246        0.02519095        0.02513848        0.05032943
        -12.10180180        0.04577150        0.04570107        0.09147256
        -12.04114114        0.05921967        0.05916317        0.11838284
        -11.98048048        0.06652732        0.06647061        0.13299794
        -11.91981982        0.08702625        0.08692617        0.17395242
        -11.85915916        0.11483512        0.11468690        0.22952201
        -11.79849850        0.12946809        0.12929487        0.25876296
        -11.73783784        0.13266404        0.13248311        0.26514715
        -11.67717718        0.13689281        0.13672622        0.27361904
        -11.61651652        0.13666913        0.13653817        0.27320730
        -11.55585586        0.12897111        0.12885866        0.25782976
        -11.49519520        0.12677536        0.12663470        0.25341006
        -11.43453453        0.13614085        0.13594954        0.27209039
        -11.37387387        0.14065322        0.14044542        0.28109865
        -11.31321321        0.12772644        0.12754476        0.25527120
        -11.25255255        0.10651699        0.10639244        0.21290942
        -11.19189189        0.08631243        0.08623278        0.17254521
        -11.13123123        0.07393621        0.07379463        0.14773084
        -11.07057057        0.08047842        0.08023688        0.16071529
        -11.00990991        0.09726095        0.09713518        0.19439613
        -10.94924925        0.09365351        0.09376737        0.18742088
        -10.88858859        0.07259611        0.07271606        0.14531216
        -10.82792793        0.06520928        0.06517627        0.13038555
        -10.76726727        0.08270462        0.08255171        0.16525633
        -10.70660661        0.10922497        0.10900044        0.21822540
        -10.64594595        0.13350301        0.13316445        0.26666746
        -10.58528529        0.16590514        0.16540196        0.33130710
        -10.52462462        0.20564620        0.20508738        0.41073358
        -10.46396396        0.23234968        0.23196496        0.46431464
        -10.40330330        0.23280818        0.23265019        0.46545837
        -10.34264264        0.21979328        0.21964597        0.43943925
        -10.28198198        0.20999462        0.20971162        0.41970624
        -10.22132132        0.19962541        0.19933165        0.39895706
        -10.16066066        0.18425519        0.18408326        0.36833845
        -10.10000000        0.17556246        0.17541521        0.35097767
        -10.03933934        0.18562491        0.18536794        0.37099285
         -9.97867868        0.20595099        0.20563491        0.41158590
         -9.91801802        0.21270161        0.21246285        0.42516446
         -9.85735736        0.20807172        0.20789563        0.41596735
         -9.79669670        0.20790294        0.20775211        0.41565505
         -9.73603604        0.20613937        0.20602142        0.41216080
         -9.67537538        0.20895230        0.20881568        0.41776799
         -9.61471471        0.21130340        0.21115602        0.42245942
         -9.55405405        0.19938935        0.19921502        0.39860437
         -9.49339339        0.20107610        0.20080870        0.40188480
         -9.43273273        0.22802945        0.22769651        0.45572595
         -9.37207207        0.25884572        0.25850605        0.51735177
         -9.31141141        0.27858764        0.27826578        0.55685342
         -9.25075075        0.28712442        0.28681515        0.57393957
         -9.19009009        0.29687161        0.29654506        0.59341667
         -9.12942943        0.31255322        0.31222199        0.62477520
         -9.06876877        0.32104670        0.32075612        0.64180281
         -9.00810811        0.31284894        0.31261276        0.62546171
         -8.94744745        0.28965284        0.28943409        0.57908693
         -8.88678679        0.26026763        0.26001193        0.52027956
         -8.82612613        0.23722324        0.23687085        0.47409409
         -8.76546547        0.22598419        0.22540057        0.45138476
         -8.70480480        0.22117396        0.21994387        0.44111783
         -8.64414414        0.23366141        0.22996667        0.46362808
         -8.58348348        0.33395656        0.32369021        0.65764676
         -8.52282282        0.57306852        0.55961774        1.13268626
         -8.46216216        0.71601783        0.71596817        1.43198600
         -8.40150150        0.53281889        0.54617211        1.07899100
         -8.34084084        0.26549719        0.27561986        0.54111705
         -8.28018018        0.14597045        0.14873142        0.29470187
         -8.21951952        0.13794010        0.13523382        0.27317392
         -8.15885886        0.20666408        0.19777537        0.40443945
         -8.09819820        0.31931499        0.30678297        0.62609796
         -8.03753754        0.42852510        0.41759734        0.84612244
         -7.97687688        0.53033892        0.52702781        1.05736673
         -7.91621622        0.60402039        0.60659019        1.21061058
         -7.85555556        0.83549123        0.83010425        1.66559548
         -7.79489489        1.30060386        1.28923227        2.58983613
         -7.73423423        1.59028024        1.58537419        3.17565443
         -7.67357357        1.64147325        1.63254559        3.27401884
         -7.61291291        1.90827818        1.88742050        3.79569868
         -7.55225225        2.22675394        2.21733537        4.44408931
         -7.49159159        2.17426823        2.17716395        4.35143219
         -7.43093093        1.99589878        2.00156636        3.99746514
         -7.37027027        1.70288705        1.72387509        3.42676213
         -7.30960961        1.21841588        1.24168498        2.46010086
         -7.24894895        0.96891181        0.97318747        1.94209928
         -7.18828829        1.22428876        1.20960862        2.43389738
         -7.12762763        1.74867713        1.72922690        3.47790402
         -7.06696697        1.96756336        1.96706303        3.93462639
         -7.00630631        1.64678911        1.66437520        3.31116431
         -6.94564565        1.25465135        1.26840586        2.52305721
         -6.88498498        1.04248870        1.04951985        2.09200855
         -6.82432432        0.90344329        0.90431579        1.80775908
         -6.76366366        1.00337078        0.99035783        1.99372861
         -6.70300300        1.40326206        1.38324042        2.78650248
         -6.64234234        1.83369820        1.81959323        3.65329143
         -6.58168168        2.04877501        2.04781015        4.09658516
         -6.52102102        1.92747579        1.93668647        3.86416226
         -6.46036036        1.66232422        1.66702051        3.32934473
         -6.39969970        1.62311291        1.61495240        3.23806531
         -6.33903904        1.77398056        1.76670631        3.54068687
         -6.27837838        1.72386580        1.72919827        3.45306407
         -6.21771772        1.42552200        1.43725862        2.86278061
         -6.15705706        1.11088977        1.11890198        2.22979175