#            ENERGY              s1              s2              total
        -30.30000000        0.00000029        0.00000029        0.00000058
        -30.23933934        0.00000975        0.00000970        0.00001944
        -30.17867868        0.00016065        0.00016003        0.00032068
        -30.11801802        0.00131405        0.00131014        0.00262419
        -30.05735736        0.00566299        0.00564971        0.01131270
        -29.99669670        0.01492044        0.01488632        0.02980675
        -29.93603604        0.02936299        0.02930017        0.05866316
        -29.87537538        0.04454264        0.04449608        0.08903872
        -29.81471471        0.04972573        0.04972020        0.09944593
        -29.75405405        0.04938895        0.04937292        0.09876187
        -29.69339339        0.05472810        0.05473031        0.10945842
        -29.63273273        0.06010256        0.06015616        0.12025872
        -29.57207207        0.05774985        0.05779871        0.11554856
        -29.51141141        0.04948766        0.04951040        0.09899806
        -29.45075075        0.04223228        0.04224902        0.08448130
        -29.39009009        0.03981736        0.03983227        0.07964963
        -29.32942943        0.03372172        0.03373990        0.06746162
        -29.26876877        0.02148743        0.02149914        0.04298657
        -29.20810811        0.01582451        0.01582199        0.03164649
        -29.14744745        0.01730818        0.01731075        0.03461893
        -29.08678679        0.01411269        0.01412593        0.02823862
        -29.02612613        0.00631548        0.00632476        0.01264024
        -28.96546547        0.00146213        0.00146464        0.00292677
        -28.90480480        0.00017172        0.00017203        0.00034376
        -28.84414414        0.00001017        0.00001018        0.00002035
        -28.78348348        0.00000029        0.00000029        0.00000058
        -28.72282282        0.00000000        0.00000000        0.00000000
        -28.66216216        0.00000000        0.00000000        0.00000000
        -28.60150150        0.00000000        0.00000000        0.00000000
        -28.54084084        0.00000000        0.00000000        0.00000000
        -28.48018018        0.00000000        0.00000000        0.00000000
        -28.41951952        0.00000000        0.00000000        0.00000000
        -28.35885886        0.00000000        0.00000000        0.00000000
        -28.29819820        0.00000000        0.00000000        0.00000000
        -28.23753754        0.00000000        0.00000000        0.00000000
        -28.17687688        0.00000000        0.00000000        0.00000000
        -28.11621622        0.00000000        0.00000000        0.00000000
        -28.05555556        0.00000000        0.00000000        0.00000000
        -27.99489489        0.00000000        0.00000000        0.00000000
        -27.93423423        0.00000000        0.00000000        0.00000000
        -27.87357357        0.00000000        0.00000000        0.00000000
        -27.81291291        0.00000000        0.00000000        0.00000000
        -27.75225225        0.00000000        0.00000000        0.00000000
        -27.69159159        0.00000000        0.00000000        0.00000000
        -27.63093093        0.00000000        0.00000000        0.00000000
        -27.57027027        0.00000000        0.00000000        0.00000000
        -27.50960961        0.00000000        0.00000000        0.00000000
        -27.44894895        0.00000000        0.00000000        0.00000000
        -27.38828829        0.00000000        0.00000000        0.00000000
        -27.32762763        0.00000000        0.00000000        0.00000000
        -27.26696697        0.00000000        0.00000000        0.00000000
        -27.20630631        0.00000000        0.00000000        0.00000000
        -27.14564565        0.00000000        0.00000000        0.00000000
        -27.08498498        0.00000000        0.00000000        0.00000000
        -27.02432432        0.00000000        0.00000000        0.00000000
        -26.96366366        0.00000000        0.00000000        0.00000000
        -26.90300300        0.00000000        0.00000000        0.00000000
        -26.84234234        0.00000000        0.00000000        0.00000000
        -26.78168168        0.00000000        0.00000000        0.00000000
        -26.72102102        0.00000000        0.00000000        0.00000000
        -26.66036036        0.00000000        0.00000000        0.00000000
        -26.59969970        0.00000000        0.00000000        0.00000000
        -26.53903904        0.00000000        0.00000000        0.00000000
        -26.47837838        0.00000000        0.00000000        0.00000000
        -26.41771772        0.00000000        0.00000000        0.00000000
        -26.35705706        0.00000000        0.00000000        0.00000000
        -26.29639640        0.00000000        0.00000000        0.00000000
        -26.23573574        0.00000000        0.00000000        0.00000000
        -26.17507508        0.00000000        0.00000000        0.00000000
        -26.11441441        0.00000000        0.00000000        0.00000000
        -26.05375375        0.00000000        0.00000000        0.00000000
        -25.99309309        0.00000000        0.00000000        0.00000000
        -25.93243243        0.00000000        0.00000000        0.00000000
        -25.87177177        0.00000000        0.00000000        0.00000000
        -25.81111111        0.00000000        0.00000000        0.00000000
        -25.75045045        0.00000000        0.00000000        0.00000000
        -25.68978979        0.00000000        0.00000000        0.00000000
        -25.62912913        0.00000000        0.00000000        0.00000000
        -25.56846847        0.00000000        0.00000000        0.00000000
        -25.50780781        0.00000000        0.00000000        0.00000000
        -25.44714715        0.00000000        0.00000000        0.00000000
        -25.38648649        0.00000000        0.00000000        0.00000000
        -25.32582583        0.00000000        0.00000000        0.00000000
        -25.26516517        0.00000000        0.00000000        0.00000000
        -25.20450450        0.00000000        0.00000000        0.00000000
        -25.14384384        0.00000000        0.00000000        0.00000000
        -25.08318318        0.00000000        0.00000000        0.00000000
        -25.02252252        0.00000000        0.00000000        0.00000000
        -24.96186186        0.00000000        0.00000000        0.00000000
        -24.90120120        0.00000000        0.00000000        0.00000000
        -24.84054054        0.00000000        0.00000000        0.00000000
        -24.77987988        0.00000000        0.00000000        0.00000000
        -24.71921922        0.00000000        0.00000000        0.00000000
        -24.65855856        0.00000000        0.00000000        0.00000000
        -24.59789790        0.00000000        0.00000000        0.00000000
        -24.53723724        0.00000000        0.00000000        0.00000000
        -24.47657658        0.00000000        0.00000000        0.00000000
        -24.41591592        0.00000000        0.00000000        0.00000000
        -24.35525526        0.00000000        0.00000000        0.00000000
        -24.29459459        0.00000000        0.00000000        0.00000000
        -24.23393393        0.00000000        0.00000000        0.00000000
        -24.17327327        0.00000000        0.00000000        0.00000000
        -24.11261261        0.00000000        0.00000000        0.00000000
        -24.05195195        0.00000000        0.00000000        0.00000000
        -23.99129129        0.00000000        0.00000000        0.00000000
        -23.93063063        0.00000000        0.00000000        0.00000000
        -23.86996997        0.00000000        0.00000000        0.00000000
        -23.80930931        0.00000000        0.00000000        0.00000000
        -23.74864865        0.00000000        0.00000000        0.00000000
        -23.68798799        0.00000000        0.00000000        0.00000000
        -23.62732733        0.00000000        0.00000000        0.00000000
        -23.56666667        0.00000000        0.00000000        0.00000000
        -23.50600601        0.00000000        0.00000000        0.00000000
        -23.44534535        0.00000000        0.00000000        0.00000000
        -23.38468468        0.00000000        0.00000000        0.00000000
        -23.32402402        0.00000000        0.00000000        0.00000000
        -23.26336336        0.00000000        0.00000000        0.00000000
        -23.20270270        0.00000000        0.00000000        0.00000000
        -23.14204204        0.00000000        0.00000000        0.00000000
        -23.08138138        0.00000000        0.00000000        0.00000000
        -23.02072072        0.00000000        0.00000000        0.00000000
        -22.96006006        0.00000000        0.00000000        0.00000000
        -22.89939940        0.00000000        0.00000000        0.00000000
        -22.83873874        0.00000000        0.00000000        0.00000000
        -22.77807808        0.00000000        0.00000000        0.00000000
        -22.71741742        0.00000000        0.00000000        0.00000000
        -22.65675676        0.00000000        0.00000000        0.00000000
        -22.59609610        0.00000000        0.00000000        0.00000000
        -22.53543544        0.00000000        0.00000000        0.00000000
        -22.47477477        0.00000000        0.00000000        0.00000000
        -22.41411411        0.00000000        0.00000000        0.00000000
        -22.35345345        0.00000000        0.00000000        0.00000000
        -22.29279279        0.00000000        0.00000000        0.00000000
        -22.23213213        0.00000000        0.00000000        0.00000000
        -22.17147147        0.00000000        0.00000000        0.00000000
        -22.11081081        0.00000000        0.00000000        0.00000000
        -22.05015015        0.00000000        0.00000000        0.00000000
        -21.98948949        0.00000000        0.00000000        0.00000000
        -21.92882883        0.00000000        0.00000000        0.00000000
        -21.86816817        0.00000000        0.00000000        0.00000000
        -21.80750751        0.00000000        0.00000000        0.00000000
        -21.74684685        0.00000000        0.00000000        0.00000000
        -21.68618619        0.00000000        0.00000000        0.00000000
        -21.62552553        0.00000000        0.00000000        0.00000000
        -21.56486486        0.00000000        0.00000000        0.00000000
        -21.50420420        0.00000000        0.00000000        0.00000000
        -21.44354354        0.00000000        0.00000000        0.00000000
        -21.38288288        0.00000000        0.00000000        0.00000000
        -21.32222222        0.00000000        0.00000000        0.00000000
        -21.26156156        0.00000000        0.00000000        0.00000000
        -21.20090090        0.00000000        0.00000000        0.00000000
        -21.14024024        0.00000000        0.00000000        0.00000000
        -21.07957958        0.00000000        0.00000000        0.00000000
        -21.01891892        0.00000000        0.00000000        0.00000000
        -20.95825826        0.00000000        0.00000000        0.00000000
        -20.89759760        0.00000000        0.00000000        0.00000000
        -20.83693694        0.00000000        0.00000000        0.00000000
        -20.77627628        0.00000018        0.00000018        0.00000036
        -20.71561562        0.00000406        0.00000404        0.00000810
        -20.65495495        0.00004446        0.00004434        0.00008880
        -20.59429429        0.00024645        0.00024601        0.00049246
        -20.53363363        0.00073081        0.00073007        0.00146088
        -20.47297297        0.00137636        0.00137557        0.00275193
        -20.41231231        0.00233445        0.00233306        0.00466751
        -20.35165165        0.00408755        0.00408404        0.00817159
        -20.29099099        0.00630338        0.00629650        0.01259988
        -20.23033033        0.00764599        0.00763835        0.01528434
        -20.16966967        0.00707348        0.00707011        0.01414359
        -20.10900901        0.00599835        0.00599965        0.01199801
        -20.04834835        0.00546046        0.00546208        0.01092255
        -19.98768769        0.00516094        0.00515948        0.01032041
        -19.92702703        0.00560597        0.00560161        0.01120759
        -19.86636637        0.00716547        0.00715997        0.01432544
        -19.80570571        0.00842244        0.00841781        0.01684025
        -19.74504505        0.00819598        0.00819356        0.01638955
        -19.68438438        0.00795169        0.00795072        0.01590241
        -19.62372372        0.00888879        0.00888774        0.01777654
        -19.56306306        0.00992282        0.00992130        0.01984412
        -19.50240240        0.00966516        0.00966399        0.01932915
        -19.44174174        0.00847122        0.00847048        0.01694170
        -19.38108108        0.00751664        0.00751556        0.01503220
        -19.32042042        0.00711895        0.00711749        0.01423644
        -19.25975976        0.00735764        0.00735626        0.01471390
        -19.19909910        0.00821466        0.00821379        0.01642845
        -19.13843844        0.00869037        0.00869013        0.01738050
        -19.07777778        0.00810344        0.00810347        0.01620691
        -19.01711712        0.00701542        0.00701513        0.01403055
        -18.95645646        0.00616237        0.00616134        0.01232371
        -18.89579580        0.00601845        0.00601693        0.01203538
        -18.83513514        0.00641004        0.00640869        0.01281873
        -18.77447447        0.00654026        0.00653920        0.01307946
        -18.71381381        0.00629239        0.00629163        0.01258403
        -18.65315315        0.00599449        0.00599413        0.01198862
        -18.59249249        0.00536886        0.00536834        0.01073720
        -18.53183183        0.00469022        0.00468889        0.00937912
        -18.47117117        0.00478965        0.00478750        0.00957715
        -18.41051051        0.00589466        0.00589223        0.01178690
        -18.34984985        0.00709099        0.00708971        0.01418069
        -18.28918919        0.00737974        0.00738002        0.01475976
        -18.22852853        0.00673433        0.00673488        0.01346921
        -18.16786787        0.00578755        0.00578730        0.01157485
        -18.10720721        0.00493144        0.00493044        0.00986187
        -18.04654655        0.00412376        0.00412333        0.00824709
        -17.98588589        0.00377717        0.00377789        0.00755507
        -17.92522523        0.00345522        0.00345615        0.00691137
        -17.86456456        0.00212739        0.00212791        0.00425531
        -17.80390390        0.00069884        0.00069901        0.00139785
        -17.74324324        0.00011412        0.00011415        0.00022827
        -17.68258258        0.00000912        0.00000912        0.00001825
        -17.62192192        0.00000036        0.00000036        0.00000072
        -17.56126126        0.00000000        0.00000000        0.00000000
        -17.50060060        0.00000000        0.00000000        0.00000000
        -17.43993994        0.00000000        0.00000000        0.00000000
        -17.37927928        0.00000000        0.00000000        0.00000000
        -17.31861862        0.00000048        0.00000048        0.00000096
        -17.25795796        0.00001698        0.00001688        0.00003386
        -17.19729730        0.00027128        0.00027003        0.00054131
        -17.13663664        0.00211843        0.00211121        0.00422964
        -17.07597598        0.00823842        0.00821956        0.01645798
        -17.01531532        0.01666934        0.01664806        0.03331739
        -16.95465465        0.01963912        0.01962980        0.03926892
        -16.89399399        0.01791908        0.01791594        0.03583502
        -16.83333333        0.01865782        0.01864882        0.03730664
        -16.77267267        0.02056240        0.02054934        0.04111175
        -16.71201201        0.01814243        0.01813310        0.03627553
        -16.65135135        0.01414334        0.01413681        0.02828016
        -16.59069069        0.01411983        0.01411073        0.02823056
        -16.53003003        0.01634483        0.01633407        0.03267891
        -16.46936937        0.01679267        0.01678355        0.03357622
        -16.40870871        0.01635923        0.01635024        0.03270947
        -16.34804805        0.01682216        0.01681136        0.03363352
        -16.28738739        0.01826606        0.01825377        0.03651982
        -16.22672673        0.01984621        0.01983500        0.03968121
        -16.16606607        0.02078649        0.02077627        0.04156276
        -16.10540541        0.02162279        0.02161115        0.04323394
        -16.04474474        0.02205470        0.02204184        0.04409655
        -15.98408408        0.02292250        0.02290684        0.04582934
        -15.92342342        0.02707071        0.02704884        0.05411955
        -15.86276276        0.03306924        0.03304488        0.06611411
        -15.80210210        0.03717409        0.03715253        0.07432661
        -15.74144144        0.04011331        0.04009412        0.08020743
        -15.68078078        0.04163775        0.04161856        0.08325630
        -15.62012012        0.04283471        0.04280624        0.08564095
        -15.55945946        0.04929983        0.04925323        0.09855306
        -15.49879880        0.06032972        0.06027663        0.12060635
        -15.43813814        0.06450288        0.06446528        0.12896816
        -15.37747748        0.06108972        0.06105977        0.12214948
        -15.31681682        0.06355263        0.06350803        0.12706066
        -15.25615616        0.07304584        0.07297754        0.14602338
        -15.19549550        0.08592897        0.08584162        0.17177059
        -15.13483483        0.09755198        0.09747900        0.19503097
        -15.07417417        0.10271266        0.10265839        0.20537106
        -15.01351351        0.10746613        0.10741337        0.21487951
        -14.95285285        0.10846844        0.10843884        0.21690727
        -14.89219219        0.09707670        0.09707867        0.19415537
        -14.83153153        0.08115646        0.08116160        0.16231806
        -14.77087087        0.06791643        0.06791160        0.13582803
        -14.71021021        0.05245668        0.05245305        0.10490973
        -14.64954955        0.03522193        0.03522721        0.07044914
        -14.58888889        0.01972263        0.01973634        0.03945897
        -14.52822823        0.00840770        0.00841885        0.01682654
        -14.46756757        0.00280124        0.00280545        0.00560669
        -14.40690691        0.00075148        0.00075239        0.00150387
        -14.34624625        0.00013868        0.00013881        0.00027750
        -14.28558559        0.00001935        0.00001930        0.00003865
        -14.22492492        0.00011437        0.00011299        0.00022736
        -14.16426426        0.00154722        0.00153382        0.00308104
        -14.10360360        0.01043975        0.01038269        0.02082244
        -14.04294294        0.03573894        0.03563779        0.07137673
        -13.98228228        0.06631404        0.06623285        0.13254689
        -13.92162162        0.07875631        0.07865452        0.15741083
        -13.86096096        0.08237797        0.08216499        0.16454296
        -13.80030030        0.10036758        0.10007184        0.20043942
        -13.73963964        0.13682860        0.13654687        0.27337547
        -13.67897898        0.16934894        0.16922485        0.33857379
        -13.61831832        0.16963660        0.16967938        0.33931598
        -13.55765766        0.14565085        0.14571517        0.29136602
        -13.49699700        0.12341179        0.12342091        0.24683270
        -13.43633634        0.11105294        0.11101872        0.22207166
        -13.37567568        0.10793831        0.10787340        0.21581171
        -13.31501502        0.11092578        0.11086288        0.22178866
        -13.25435435        0.11124967        0.11122621        0.22247588
        -13.19369369        0.10846516        0.10845068        0.21691584
        -13.13303303        0.10873549        0.10870344        0.21743893
        -13.07237237        0.10595505        0.10591860        0.21187365
        -13.01171171        0.09782592        0.09778956        0.19561547
        -12.95105105        0.09604870        0.09601042        0.19205913
        -12.89039039        0.10245529        0.10241560        0.20487089
        -12.82972973        0.10750528        0.10746710        0.21497238
        -12.76906907        0.10615230        0.10612095        0.21227325
        -12.70840841        0.09749654        0.09748114        0.19497768
        -12.64774775        0.08581397        0.08580601        0.17161998
        -12.58708709        0.07966705        0.07965259        0.15931964
        -12.52642643        0.07419123        0.07417955        0.14837078
        -12.46576577        0.05962737        0.05962354        0.11925091
        -12.40510511        0.04116224        0.04115899        0.08232123
        -12.34444444        0.02675717        0.02675321        0.05351038
        -12.28378378        0.01859900        0.01859137        0.03719037
        -12.22312312        0.01858444        0.01855970        0.03714414
        -12.16246246        0.03252307        0.03247019        0.06499326
        -12.10180180        0.05413716        0.05408234        0.10821950
        -12.04114114        0.06037102        0.06034378        0.12071480
        -11.98048048        0.05567608        0.05564405        0.11132013
        -11.91981982        0.06895754        0.06887138        0.13782892
        -11.85915916        0.09768604        0.09754056        0.19522660
        -11.79849850        0.11610014        0.11590982        0.23200996
        -11.73783784        0.12421074        0.12399662        0.24820735
        -11.67717718        0.12997453        0.12978706        0.25976160
        -11.61651652        0.12705201        0.12691816        0.25397017
        -11.55585586        0.12044292        0.12032322        0.24076614
        -11.49519520        0.12445762        0.12429741        0.24875502
        -11.43453453        0.14008770        0.13987559        0.27996329
        -11.37387387        0.14725698        0.14705126        0.29430824
        -11.31321321        0.13251906        0.13237644        0.26489550
        -11.25255255        0.10496598        0.10489188        0.20985785
        -11.19189189        0.07641616        0.07636562        0.15278178
        -11.13123123        0.05902478        0.05889537        0.11792015
        -11.07057057        0.06398400        0.06375032        0.12773432
        -11.00990991        0.07949240        0.07934155        0.15883394
        -10.94924925        0.07747482        0.07751978        0.15499460
        -10.88858859        0.06039846        0.06045827        0.12085673
        -10.82792793        0.05439216        0.05433668        0.10872884
        -10.76726727        0.07029087        0.07012630        0.14041716
        -10.70660661        0.09853231        0.09825264        0.19678495
        -10.64594595        0.13635700        0.13584126        0.27219826
        -10.58528529        0.19665902        0.19574740        0.39240642
        -10.52462462        0.27535532        0.27418969        0.54954502
        -10.46396396        0.32763141        0.32674389        0.65437530
        -10.40330330        0.32353027        0.32305085        0.64658112
        -10.34264264        0.31159707        0.31107347        0.62267053
        -10.28198198        0.31197228        0.31126283        0.62323511
        -10.22132132        0.29050199        0.28988474        0.58038673
        -10.16066066        0.25453662        0.25415793        0.50869455
        -10.10000000        0.24205759        0.24167350        0.48373109
        -10.03933934        0.26791987        0.26730637        0.53522623
         -9.97867868        0.29974790        0.29903931        0.59878721
         -9.91801802        0.29924428        0.29868139        0.59792567
         -9.85735736        0.28516038        0.28468680        0.56984718
         -9.79669670        0.28977267        0.28926899        0.57904166
         -9.73603604        0.29844838        0.29793628        0.59638466
         -9.67537538        0.30481634        0.30425981        0.60907615
         -9.61471471        0.30677505        0.30618039        0.61295544
         -9.55405405        0.29794219        0.29724687        0.59518907
         -9.49339339        0.31545198        0.31445493        0.62990692
         -9.43273273        0.36376512        0.36243146        0.72619657
         -9.37207207        0.41021206        0.40866001        0.81887207
         -9.31141141        0.44185129        0.44023209        0.88208338
         -9.25075075        0.45660057        0.45500720        0.91160776
         -9.19009009        0.47695192        0.47524784        0.95219976
         -9.12942943        0.51391017        0.51199023        1.02590040
         -9.06876877        0.53545596        0.53339739        1.06885335
         -9.00810811        0.52744456        0.52531946        1.05276401
         -8.94744745        0.49471827        0.49262840        0.98734667
         -8.88678679        0.45623591        0.45404825        0.91028416
         -8.82612613        0.44428770        0.44135402        0.88564172
         -8.76546547        0.47869660        0.47390416        0.95260075
         -8.70480480        0.56011109        0.55141154        1.11152264
         -8.64414414        0.72438930        0.70367046        1.42805976
         -8.58348348        1.29594196        1.24508497        2.54102694
         -8.52282282        2.50918551        2.44780145        4.95698696
         -8.46216216        3.18263769        3.18986098        6.37249867
         -8.40150150        2.26233428        2.33116176        4.59349604
         -8.34084084        0.99300872        1.04175516        2.03476388
         -8.28018018        0.46113266        0.47225352        0.93338618
         -8.21951952        0.53000628        0.51064932        1.04065560
         -8.15885886        1.06083437        1.00637393        2.06720830
         -8.09819820        1.70775049        1.64024618        3.34799667
         -8.03753754        2.08678157        2.04135735        4.12813892
         -7.97687688        2.30812022        2.30902133        4.61714155
         -7.91621622        2.25712968        2.29332588        4.55045556
         -7.85555556        2.39966418        2.41372987        4.81339405
         -7.79489489        3.18803315        3.17139578        6.35942894
         -7.73423423        3.84480360        3.82505894        7.66986254
         -7.67357357        4.22644495        4.18438391        8.41082886
         -7.61291291        5.14233001        5.07716813       10.21949814
         -7.55225225        5.85095290        5.82912223       11.68007514
         -7.49159159        5.53388274        5.53283436       11.06671710
         -7.43093093        5.27163863        5.26444771       10.53608634
         -7.37027027        4.76001609        4.81085714        9.57087323
         -7.30960961        3.40231961        3.47369411        6.87601373
         -7.24894895        2.49260213        2.51435209        5.00695422
         -7.18828829        2.72507062        2.70643080        5.43150141
         -7.12762763        3.35225338        3.33186193        6.68411531
         -7.06696697        3.39831571        3.41310354        6.81141925
         -7.00630631        2.73668295        2.77144604        5.50812899
         -6.94564565        2.34240630        2.35118601        4.69359231
         -6.88498498        2.53780752        2.53558106        5.07338858
         -6.82432432        2.48675491        2.49811342        4.98486832
         -6.76366366        2.16061036        2.16630016        4.32691052
         -6.70300300        1.95234900        1.95093188        3.90328088
         -6.64234234        1.79180262        1.79713362        3.58893623
         -6.58168168        1.53264189        1.54933398        3.08197588
         -6.52102102        1.19703002        1.21281611        2.40984613
         -6.46036036        0.96823117        0.97181182        1.94004299
         -6.39969970        0.96000468        0.95276564        1.91277032
         -6.33903904        1.05825872        1.05367005        2.11192877
         -6.27837838        1.02253930        1.02670697        2.04924627
         -6.21771772        0.89245420        0.89754756        1.79000176
         -6.15705706        0.84128878        0.84023910        1.68152787