#            ENERGY              s1              s2              total
        -30.30000000        0.00000003        0.00000003        0.00000006
        -30.23933934        0.00000099        0.00000098        0.00000197
        -30.17867868        0.00001653        0.00001646        0.00003300
        -30.11801802        0.00013604        0.00013560        0.00027163
        -30.05735736        0.00057700        0.00057582        0.00115282
        -29.99669670        0.00141568        0.00141398        0.00282966
        -29.93603604        0.00244294        0.00244055        0.00488350
        -29.87537538        0.00333888        0.00333565        0.00667453
        -29.81471471        0.00360426        0.00360096        0.00720521
        -29.75405405        0.00344087        0.00343833        0.00687920
        -29.69339339        0.00334249        0.00334300        0.00668549
        -29.63273273        0.00322753        0.00323062        0.00645815
        -29.57207207        0.00289434        0.00289652        0.00579086
        -29.51141141        0.00222106        0.00222165        0.00444271
        -29.45075075        0.00156154        0.00156171        0.00312325
        -29.39009009        0.00127151        0.00127160        0.00254312
        -29.32942943        0.00099375        0.00099417        0.00198792
        -29.26876877        0.00053925        0.00053969        0.00107894
        -29.20810811        0.00025380        0.00025384        0.00050764
        -29.14744745        0.00019467        0.00019465        0.00038932
        -29.08678679        0.00014291        0.00014305        0.00028596
        -29.02612613        0.00005972        0.00005983        0.00011955
        -28.96546547        0.00001306        0.00001309        0.00002615
        -28.90480480        0.00000150        0.00000150        0.00000300
        -28.84414414        0.00000009        0.00000009        0.00000018
        -28.78348348        0.00000000        0.00000000        0.00000001
        -28.72282282        0.00000000        0.00000000        0.00000000
        -28.66216216       -0.00000000       -0.00000000       -0.00000000
        -28.60150150       -0.00000000       -0.00000000       -0.00000000
        -28.54084084        0.00000000        0.00000000        0.00000000
        -28.48018018        0.00000000        0.00000000        0.00000000
        -28.41951952        0.00000000        0.00000000        0.00000000
        -28.35885886        0.00000000        0.00000000        0.00000000
        -28.29819820        0.00000000        0.00000000        0.00000000
        -28.23753754        0.00000000        0.00000000        0.00000000
        -28.17687688        0.00000000        0.00000000        0.00000000
        -28.11621622        0.00000000        0.00000000        0.00000000
        -28.05555556        0.00000000        0.00000000        0.00000000
        -27.99489489        0.00000000        0.00000000        0.00000000
        -27.93423423        0.00000000        0.00000000        0.00000000
        -27.87357357        0.00000000        0.00000000        0.00000000
        -27.81291291        0.00000000        0.00000000        0.00000000
        -27.75225225        0.00000000        0.00000000        0.00000000
        -27.69159159        0.00000000        0.00000000        0.00000000
        -27.63093093        0.00000000        0.00000000        0.00000000
        -27.57027027        0.00000000        0.00000000        0.00000000
        -27.50960961        0.00000000        0.00000000        0.00000000
        -27.44894895        0.00000000        0.00000000        0.00000000
        -27.38828829        0.00000000        0.00000000        0.00000000
        -27.32762763        0.00000000        0.00000000        0.00000000
        -27.26696697        0.00000000        0.00000000        0.00000000
        -27.20630631        0.00000000        0.00000000        0.00000000
        -27.14564565        0.00000000        0.00000000        0.00000000
        -27.08498498        0.00000000        0.00000000        0.00000000
        -27.02432432        0.00000000        0.00000000        0.00000000
        -26.96366366        0.00000000        0.00000000        0.00000000
        -26.90300300        0.00000000        0.00000000        0.00000000
        -26.84234234        0.00000000        0.00000000        0.00000000
        -26.78168168        0.00000000        0.00000000        0.00000000
        -26.72102102        0.00000000        0.00000000        0.00000000
        -26.66036036        0.00000000        0.00000000        0.00000000
        -26.59969970        0.00000000        0.00000000        0.00000000
        -26.53903904        0.00000000        0.00000000        0.00000000
        -26.47837838        0.00000000        0.00000000        0.00000000
        -26.41771772        0.00000000        0.00000000        0.00000000
        -26.35705706        0.00000000        0.00000000        0.00000000
        -26.29639640        0.00000000        0.00000000        0.00000000
        -26.23573574        0.00000000        0.00000000        0.00000000
        -26.17507508        0.00000000        0.00000000        0.00000000
        -26.11441441        0.00000000        0.00000000        0.00000000
        -26.05375375        0.00000000        0.00000000        0.00000000
        -25.99309309        0.00000000        0.00000000        0.00000000
        -25.93243243        0.00000000        0.00000000        0.00000000
        -25.87177177        0.00000000        0.00000000        0.00000000
        -25.81111111        0.00000000        0.00000000        0.00000000
        -25.75045045        0.00000000        0.00000000        0.00000000
        -25.68978979        0.00000000        0.00000000        0.00000000
        -25.62912913        0.00000000        0.00000000        0.00000000
        -25.56846847        0.00000000        0.00000000        0.00000000
        -25.50780781        0.00000000        0.00000000        0.00000000
        -25.44714715        0.00000000        0.00000000        0.00000000
        -25.38648649        0.00000000        0.00000000        0.00000000
        -25.32582583        0.00000000        0.00000000        0.00000000
        -25.26516517        0.00000000        0.00000000        0.00000000
        -25.20450450        0.00000000        0.00000000        0.00000000
        -25.14384384        0.00000000        0.00000000        0.00000000
        -25.08318318        0.00000000        0.00000000        0.00000000
        -25.02252252        0.00000000        0.00000000        0.00000000
        -24.96186186        0.00000000        0.00000000        0.00000000
        -24.90120120        0.00000000        0.00000000        0.00000000
        -24.84054054        0.00000000        0.00000000        0.00000000
        -24.77987988        0.00000000        0.00000000        0.00000000
        -24.71921922        0.00000000        0.00000000        0.00000000
        -24.65855856        0.00000000        0.00000000        0.00000000
        -24.59789790        0.00000000        0.00000000        0.00000000
        -24.53723724        0.00000000        0.00000000        0.00000000
        -24.47657658        0.00000000        0.00000000        0.00000000
        -24.41591592        0.00000000        0.00000000        0.00000000
        -24.35525526        0.00000000        0.00000000        0.00000000
        -24.29459459        0.00000000        0.00000000        0.00000000
        -24.23393393        0.00000000        0.00000000        0.00000000
        -24.17327327        0.00000000        0.00000000        0.00000000
        -24.11261261        0.00000000        0.00000000        0.00000000
        -24.05195195        0.00000000        0.00000000        0.00000000
        -23.99129129        0.00000000        0.00000000        0.00000000
        -23.93063063        0.00000000        0.00000000        0.00000000
        -23.86996997        0.00000000        0.00000000        0.00000000
        -23.80930931        0.00000000        0.00000000        0.00000000
        -23.74864865        0.00000000        0.00000000        0.00000000
        -23.68798799        0.00000000        0.00000000        0.00000000
        -23.62732733        0.00000000        0.00000000        0.00000000
        -23.56666667        0.00000000        0.00000000        0.00000000
        -23.50600601        0.00000000        0.00000000        0.00000000
        -23.44534535        0.00000000        0.00000000        0.00000000
        -23.38468468        0.00000000        0.00000000        0.00000000
        -23.32402402        0.00000000        0.00000000        0.00000000
        -23.26336336        0.00000000        0.00000000        0.00000000
        -23.20270270        0.00000000        0.00000000        0.00000000
        -23.14204204        0.00000000        0.00000000        0.00000000
        -23.08138138        0.00000000        0.00000000        0.00000000
        -23.02072072        0.00000000        0.00000000        0.00000000
        -22.96006006        0.00000000        0.00000000        0.00000000
        -22.89939940        0.00000000        0.00000000        0.00000000
        -22.83873874        0.00000000        0.00000000        0.00000000
        -22.77807808        0.00000000        0.00000000        0.00000000
        -22.71741742        0.00000000        0.00000000        0.00000000
        -22.65675676        0.00000000        0.00000000        0.00000000
        -22.59609610        0.00000000        0.00000000        0.00000000
        -22.53543544        0.00000000        0.00000000        0.00000000
        -22.47477477        0.00000000        0.00000000        0.00000000
        -22.41411411        0.00000000        0.00000000        0.00000000
        -22.35345345        0.00000000        0.00000000        0.00000000
        -22.29279279        0.00000000        0.00000000        0.00000000
        -22.23213213        0.00000000        0.00000000        0.00000000
        -22.17147147        0.00000000        0.00000000        0.00000000
        -22.11081081        0.00000000        0.00000000        0.00000000
        -22.05015015        0.00000000        0.00000000        0.00000000
        -21.98948949        0.00000000        0.00000000        0.00000000
        -21.92882883        0.00000000        0.00000000        0.00000000
        -21.86816817        0.00000000        0.00000000        0.00000000
        -21.80750751        0.00000000        0.00000000        0.00000000
        -21.74684685        0.00000000        0.00000000        0.00000000
        -21.68618619        0.00000000        0.00000000        0.00000000
        -21.62552553        0.00000000        0.00000000        0.00000000
        -21.56486486        0.00000000        0.00000000        0.00000000
        -21.50420420        0.00000000        0.00000000        0.00000000
        -21.44354354        0.00000000        0.00000000        0.00000000
        -21.38288288        0.00000000        0.00000000        0.00000000
        -21.32222222        0.00000000        0.00000000        0.00000000
        -21.26156156        0.00000000        0.00000000        0.00000000
        -21.20090090        0.00000000        0.00000000        0.00000000
        -21.14024024        0.00000000        0.00000000        0.00000000
        -21.07957958        0.00000000        0.00000000        0.00000000
        -21.01891892        0.00000000        0.00000000        0.00000000
        -20.95825826        0.00000000        0.00000000        0.00000000
        -20.89759760        0.00000000        0.00000000        0.00000000
        -20.83693694        0.00000000        0.00000000        0.00000000
        -20.77627628        0.00000017        0.00000017        0.00000034
        -20.71561562        0.00000360        0.00000358        0.00000718
        -20.65495495        0.00003714        0.00003700        0.00007414
        -20.59429429        0.00018744        0.00018692        0.00037436
        -20.53363363        0.00047890        0.00047805        0.00095695
        -20.47297297        0.00070329        0.00070259        0.00140589
        -20.41231231        0.00087475        0.00087401        0.00174876
        -20.35165165        0.00134977        0.00134816        0.00269793
        -20.29099099        0.00211808        0.00211508        0.00423316
        -20.23033033        0.00262301        0.00261942        0.00524242
        -20.16966967        0.00243070        0.00242804        0.00485875
        -20.10900901        0.00207737        0.00207567        0.00415304
        -20.04834835        0.00199336        0.00199211        0.00398547
        -19.98768769        0.00181929        0.00181867        0.00363796
        -19.92702703        0.00151209        0.00151163        0.00302372
        -19.86636637        0.00140357        0.00140267        0.00280623
        -19.80570571        0.00145053        0.00144938        0.00289992
        -19.74504505        0.00141080        0.00140965        0.00282045
        -19.68438438        0.00132879        0.00132754        0.00265633
        -19.62372372        0.00131922        0.00131794        0.00263717
        -19.56306306        0.00130768        0.00130657        0.00261425
        -19.50240240        0.00124639        0.00124547        0.00249186
        -19.44174174        0.00116545        0.00116462        0.00233007
        -19.38108108        0.00107317        0.00107228        0.00214545
        -19.32042042        0.00102058        0.00101956        0.00204014
        -19.25975976        0.00104719        0.00104609        0.00209327
        -19.19909910        0.00107067        0.00106962        0.00214030
        -19.13843844        0.00103633        0.00103538        0.00207171
        -19.07777778        0.00100948        0.00100854        0.00201803
        -19.01711712        0.00101453        0.00101354        0.00202808
        -18.95645646        0.00104594        0.00104485        0.00209079
        -18.89579580        0.00110361        0.00110249        0.00220610
        -18.83513514        0.00112761        0.00112660        0.00225421
        -18.77447447        0.00109550        0.00109458        0.00219007
        -18.71381381        0.00105611        0.00105515        0.00211126
        -18.65315315        0.00104067        0.00103960        0.00208026
        -18.59249249        0.00103960        0.00103843        0.00207803
        -18.53183183        0.00104474        0.00104357        0.00208831
        -18.47117117        0.00103578        0.00103468        0.00207046
        -18.41051051        0.00105409        0.00105296        0.00210705
        -18.34984985        0.00110923        0.00110814        0.00221737
        -18.28918919        0.00111223        0.00111126        0.00222350
        -18.22852853        0.00103856        0.00103759        0.00207615
        -18.16786787        0.00097809        0.00097694        0.00195503
        -18.10720721        0.00104079        0.00103934        0.00208013
        -18.04654655        0.00111790        0.00111669        0.00223459
        -17.98588589        0.00093078        0.00093038        0.00186116
        -17.92522523        0.00054109        0.00054104        0.00108213
        -17.86456456        0.00021952        0.00021946        0.00043898
        -17.80390390        0.00005727        0.00005724        0.00011451
        -17.74324324        0.00000846        0.00000845        0.00001691
        -17.68258258        0.00000065        0.00000065        0.00000131
        -17.62192192        0.00000003        0.00000003        0.00000005
        -17.56126126        0.00000000        0.00000000        0.00000000
        -17.50060060        0.00000000        0.00000000        0.00000000
        -17.43993994        0.00000000        0.00000000        0.00000000
        -17.37927928        0.00000000        0.00000000        0.00000000
        -17.31861862        0.00000011        0.00000011        0.00000023
        -17.25795796        0.00000411        0.00000409        0.00000820
        -17.19729730        0.00006653        0.00006622        0.00013275
        -17.13663664        0.00052732        0.00052548        0.00105280
        -17.07597598        0.00208977        0.00208472        0.00417450
        -17.01531532        0.00435428        0.00434775        0.00870203
        -16.95465465        0.00544098        0.00543629        0.01087727
        -16.89399399        0.00553430        0.00553010        0.01106440
        -16.83333333        0.00633300        0.00632640        0.01265941
        -16.77267267        0.00701874        0.00701156        0.01403030
        -16.71201201        0.00591810        0.00591366        0.01183175
        -16.65135135        0.00440561        0.00440309        0.00880870
        -16.59069069        0.00391303        0.00391025        0.00782329
        -16.53003003        0.00380833        0.00380483        0.00761316
        -16.46936937        0.00372963        0.00372580        0.00745544
        -16.40870871        0.00394760        0.00394347        0.00789107
        -16.34804805        0.00435005        0.00434544        0.00869549
        -16.28738739        0.00474372        0.00473882        0.00948253
        -16.22672673        0.00502076        0.00501631        0.01003707
        -16.16606607        0.00494861        0.00494472        0.00989333
        -16.10540541        0.00466601        0.00466207        0.00932808
        -16.04474474        0.00443104        0.00442685        0.00885789
        -15.98408408        0.00453752        0.00453279        0.00907032
        -15.92342342        0.00543825        0.00543231        0.01087056
        -15.86276276        0.00693545        0.00692842        0.01386387
        -15.80210210        0.00820182        0.00819426        0.01639607
        -15.74144144        0.00896340        0.00895540        0.01791880
        -15.68078078        0.00918770        0.00917944        0.01836714
        -15.62012012        0.00919258        0.00918342        0.01837600
        -15.55945946        0.00952504        0.00951410        0.01903915
        -15.49879880        0.01040246        0.01039061        0.02079307
        -15.43813814        0.01096060        0.01095037        0.02191097
        -15.37747748        0.01100307        0.01099366        0.02199673
        -15.31681682        0.01190631        0.01189525        0.02380156
        -15.25615616        0.01287663        0.01286355        0.02574017
        -15.19549550        0.01308856        0.01307385        0.02616241
        -15.13483483        0.01302924        0.01301775        0.02604699
        -15.07417417        0.01241828        0.01241132        0.02482959
        -15.01351351        0.01199687        0.01199069        0.02398756
        -14.95285285        0.01198858        0.01198344        0.02397202
        -14.89219219        0.01108743        0.01108418        0.02217162
        -14.83153153        0.00914847        0.00914561        0.01829408
        -14.77087087        0.00720489        0.00720177        0.01440666
        -14.71021021        0.00529778        0.00529587        0.01059365
        -14.64954955        0.00337773        0.00337782        0.00675555
        -14.58888889        0.00178821        0.00178943        0.00357765
        -14.52822823        0.00074727        0.00074814        0.00149541
        -14.46756757        0.00025608        0.00025632        0.00051240
        -14.40690691        0.00007151        0.00007153        0.00014303
        -14.34624625        0.00001360        0.00001360        0.00002720
        -14.28558559        0.00000297        0.00000294        0.00000591
        -14.22492492        0.00003963        0.00003913        0.00007876
        -14.16426426        0.00055692        0.00055187        0.00110879
        -14.10360360        0.00393893        0.00391602        0.00785495
        -14.04294294        0.01453063        0.01448371        0.02901434
        -13.98228228        0.03010661        0.03005636        0.06016297
        -13.92162162        0.03969625        0.03964611        0.07934236
        -13.86096096        0.04033885        0.04027133        0.08061018
        -13.80030030        0.04253221        0.04242964        0.08496185
        -13.73963964        0.05413079        0.05400588        0.10813667
        -13.67897898        0.06749577        0.06741331        0.13490908
        -13.61831832        0.06898809        0.06897767        0.13796576
        -13.55765766        0.05664764        0.05666784        0.11331548
        -13.49699700        0.04180041        0.04180776        0.08360817
        -13.43633634        0.03267543        0.03266262        0.06533805
        -13.37567568        0.03020007        0.03017180        0.06037187
        -13.31501502        0.03172188        0.03168800        0.06340988
        -13.25435435        0.03341512        0.03338684        0.06680196
        -13.19369369        0.03385351        0.03382833        0.06768184
        -13.13303303        0.03287269        0.03284785        0.06572054
        -13.07237237        0.03025170        0.03022968        0.06048138
        -13.01171171        0.02779938        0.02777994        0.05557932
        -12.95105105        0.02778629        0.02776695        0.05555324
        -12.89039039        0.02937700        0.02935338        0.05873037
        -12.82972973        0.02977633        0.02974872        0.05952505
        -12.76906907        0.02758179        0.02756035        0.05514214
        -12.70840841        0.02361588        0.02360568        0.04722156
        -12.64774775        0.02005568        0.02004719        0.04010287
        -12.58708709        0.01832353        0.01831100        0.03663454
        -12.52642643        0.01669260        0.01668154        0.03337414
        -12.46576577        0.01351998        0.01351270        0.02703268
        -12.40510511        0.01026110        0.01025537        0.02051646
        -12.34444444        0.00763108        0.00762717        0.01525825
        -12.28378378        0.00533456        0.00533171        0.01066627
        -12.22312312        0.00431003        0.00430406        0.00861410
        -12.16246246        0.00687809        0.00686171        0.01373980
        -12.10180180        0.01363220        0.01360380        0.02723601
        -12.04114114        0.01979309        0.01976310        0.03955618
        -11.98048048        0.02416399        0.02413357        0.04829756
        -11.91981982        0.03157301        0.03152888        0.06310189
        -11.85915916        0.03960958        0.03954924        0.07915883
        -11.79849850        0.04209745        0.04203125        0.08412870
        -11.73783784        0.04061351        0.04054557        0.08115908
        -11.67717718        0.04165769        0.04158104        0.08323873
        -11.61651652        0.04625257        0.04616219        0.09241476
        -11.55585586        0.05280577        0.05269974        0.10550551
        -11.49519520        0.06421512        0.06408848        0.12830360
        -11.43453453        0.07739078        0.07726337        0.15465414
        -11.37387387        0.07741868        0.07732076        0.15473945
        -11.31321321        0.06403356        0.06395450        0.12798806
        -11.25255255        0.05085544        0.05078954        0.10164498
        -11.19189189        0.04057179        0.04052195        0.08109373
        -11.13123123        0.03474546        0.03465923        0.06940469
        -11.07057057        0.04106888        0.04091918        0.08198806
        -11.00990991        0.05345608        0.05336103        0.10681711
        -10.94924925        0.05142176        0.05146113        0.10288289
        -10.88858859        0.03719693        0.03724624        0.07444317
        -10.82792793        0.03189546        0.03186101        0.06375647
        -10.76726727        0.04227598        0.04216793        0.08444391
        -10.70660661        0.05952134        0.05935577        0.11887711
        -10.64594595        0.07795516        0.07770739        0.15566255
        -10.58528529        0.10107353        0.10073566        0.20180919
        -10.52462462        0.12456552        0.12422513        0.24879065
        -10.46396396        0.13827438        0.13803076        0.27630514
        -10.40330330        0.14217296        0.14200782        0.28418078
        -10.34264264        0.13923209        0.13904122        0.27827330
        -10.28198198        0.13443726        0.13415651        0.26859377
        -10.22132132        0.13123112        0.13095775        0.26218887
        -10.16066066        0.12409138        0.12393969        0.24803107
        -10.10000000        0.11551445        0.11541219        0.23092664
        -10.03933934        0.11685764        0.11668036        0.23353800
         -9.97867868        0.12986390        0.12961719        0.25948109
         -9.91801802        0.14176248        0.14152152        0.28328399
         -9.85735736        0.15299485        0.15273902        0.30573386
         -9.79669670        0.17008410        0.16980531        0.33988942
         -9.73603604        0.18345826        0.18319637        0.36665463
         -9.67537538        0.19537828        0.19510845        0.39048673
         -9.61471471        0.20078519        0.20050875        0.40129394
         -9.55405405        0.19561784        0.19529113        0.39090897
         -9.49339339        0.20985386        0.20938534        0.41923920
         -9.43273273        0.24554145        0.24495490        0.49049635
         -9.37207207        0.27714183        0.27651038        0.55365220
         -9.31141141        0.30037077        0.29970618        0.60007696
         -9.25075075        0.32733876        0.32660071        0.65393947
         -9.19009009        0.36988882        0.36903708        0.73892590
         -9.12942943        0.42957275        0.42862572        0.85819848
         -9.06876877        0.48742253        0.48643347        0.97385601
         -9.00810811        0.51668047        0.51568339        1.03236386
         -8.94744745        0.51020303        0.50917017        1.01937320
         -8.88678679        0.48682703        0.48573673        0.97256377
         -8.82612613        0.46784156        0.46668399        0.93452555
         -8.76546547        0.46053153        0.45916830        0.91969983
         -8.70480480        0.45758714        0.45560481        0.91319195
         -8.64414414        0.46861347        0.46441744        0.93303090
         -8.58348348        0.56046986        0.55071669        1.11118655
         -8.52282282        0.77339508        0.76194769        1.53534277
         -8.46216216        0.87028747        0.87184739        1.74213485
         -8.40150150        0.65555056        0.66833195        1.32388250
         -8.34084084        0.40769116        0.41629163        0.82398279
         -8.28018018        0.33971953        0.34085597        0.68057551
         -8.21951952        0.37447020        0.36872687        0.74319707
         -8.15885886        0.52019145        0.50538761        1.02557906
         -8.09819820        0.77087461        0.75096402        1.52183863
         -8.03753754        1.03724419        1.01802340        2.05526759
         -7.97687688        1.51748995        1.49278988        3.01027983
         -7.91621622        3.14538126        3.05658615        6.20196741
         -7.85555556        8.20319440        7.95493719       16.15813159
         -7.79489489       16.56148825       16.24890923       32.81039748
         -7.73423423       21.87350270       21.75766038       43.63116308
         -7.67357357       20.89001413       20.94266965       41.83268379
         -7.61291291       19.17951831       19.16356540       38.34308371
         -7.55225225       20.28581271       20.14153526       40.42734797
         -7.49159159       24.54954329       24.20528489       48.75482818
         -7.43093093       31.62747390       31.32520899       62.95268288
         -7.37027027       33.23258255       33.42494973       66.65753228
         -7.30960961       26.31247420       26.67622116       52.98869536
         -7.24894895       22.42611350       22.44695212       44.87306562
         -7.18828829       27.26723179       27.03479545       54.30202724
         -7.12762763       33.89831881       33.68437989       67.58269870
         -7.06696697       36.16131798       36.15122085       72.31253882
         -7.00630631       34.60581577       34.75096521       69.35678098
         -6.94564565       34.48977295       34.55206494       69.04183789
         -6.88498498       35.58980210       35.61125202       71.20105412
         -6.82432432       36.84361392       36.68876370       73.53237762
         -6.76366366       45.70952456       45.17345136       90.88297592
         -6.70300300       59.03460352       58.57394792      117.60855144
         -6.64234234       67.03477237       66.91924549      133.95401786
         -6.58168168       70.03354612       70.16193622      140.19548234
         -6.52102102       66.68582971       66.99601304      133.68184274
         -6.46036036       59.44508889       59.59606672      119.04115561
         -6.39969970       59.87051235       59.60361395      119.47412630
         -6.33903904       68.97493239       68.63859368      137.61352608
         -6.27837838       74.08467692       74.08239327      148.16707019
         -6.21771772       68.32939619       68.62853075      136.95792694
         -6.15705706       57.89648861       58.17413051      116.07061912