#            ENERGY              s1              s2              total
        -30.30000000        0.00000067        0.00000067        0.00000134
        -30.23933934        0.00002284        0.00002272        0.00004556
        -30.17867868        0.00037826        0.00037673        0.00075499
        -30.11801802        0.00311893        0.00310957        0.00622850
        -30.05735736        0.01357862        0.01354939        0.02712801
        -29.99669670        0.03582448        0.03575976        0.07158425
        -29.93603604        0.06916160        0.06904467        0.13820627
        -29.87537538        0.10286758        0.10275851        0.20562609
        -29.81471471        0.11349827        0.11345113        0.22694940
        -29.75405405        0.10790516        0.10786006        0.21576521
        -29.69339339        0.11079034        0.11079622        0.22158656
        -29.63273273        0.11589299        0.11599082        0.23188381
        -29.57207207        0.10865334        0.10873786        0.21739119
        -29.51141141        0.09007167        0.09010587        0.18017753
        -29.45075075        0.07358162        0.07360354        0.14718516
        -29.39009009        0.06723401        0.06725267        0.13448668
        -29.32942943        0.05566542        0.05569181        0.11135723
        -29.26876877        0.03446300        0.03448056        0.06894356
        -29.20810811        0.02461062        0.02460438        0.04921500
        -29.14744745        0.02661666        0.02661833        0.05323499
        -29.08678679        0.02150199        0.02152202        0.04302401
        -29.02612613        0.00950829        0.00952285        0.01903115
        -28.96546547        0.00217693        0.00218089        0.00435782
        -28.90480480        0.00025387        0.00025435        0.00050821
        -28.84414414        0.00001503        0.00001506        0.00003009
        -28.78348348        0.00000043        0.00000043        0.00000087
        -28.72282282        0.00000000        0.00000000        0.00000001
        -28.66216216        0.00000000        0.00000000        0.00000000
        -28.60150150        0.00000000        0.00000000        0.00000000
        -28.54084084        0.00000000        0.00000000        0.00000000
        -28.48018018        0.00000000        0.00000000        0.00000000
        -28.41951952        0.00000000        0.00000000        0.00000000
        -28.35885886        0.00000000        0.00000000        0.00000000
        -28.29819820        0.00000000        0.00000000        0.00000000
        -28.23753754        0.00000000        0.00000000        0.00000000
        -28.17687688        0.00000000        0.00000000        0.00000000
        -28.11621622        0.00000000        0.00000000        0.00000000
        -28.05555556        0.00000000        0.00000000        0.00000000
        -27.99489489        0.00000000        0.00000000        0.00000000
        -27.93423423        0.00000000        0.00000000        0.00000000
        -27.87357357        0.00000000        0.00000000        0.00000000
        -27.81291291        0.00000000        0.00000000        0.00000000
        -27.75225225        0.00000000        0.00000000        0.00000000
        -27.69159159        0.00000000        0.00000000        0.00000000
        -27.63093093        0.00000000        0.00000000        0.00000000
        -27.57027027        0.00000000        0.00000000        0.00000000
        -27.50960961        0.00000000        0.00000000        0.00000000
        -27.44894895        0.00000000        0.00000000        0.00000000
        -27.38828829        0.00000000        0.00000000        0.00000000
        -27.32762763        0.00000000        0.00000000        0.00000000
        -27.26696697        0.00000000        0.00000000        0.00000000
        -27.20630631        0.00000000        0.00000000        0.00000000
        -27.14564565        0.00000000        0.00000000        0.00000000
        -27.08498498        0.00000000        0.00000000        0.00000000
        -27.02432432        0.00000000        0.00000000        0.00000000
        -26.96366366        0.00000000        0.00000000        0.00000000
        -26.90300300        0.00000000        0.00000000        0.00000000
        -26.84234234        0.00000000        0.00000000        0.00000000
        -26.78168168        0.00000000        0.00000000        0.00000000
        -26.72102102        0.00000000        0.00000000        0.00000000
        -26.66036036        0.00000000        0.00000000        0.00000000
        -26.59969970        0.00000000        0.00000000        0.00000000
        -26.53903904        0.00000000        0.00000000        0.00000000
        -26.47837838        0.00000000        0.00000000        0.00000000
        -26.41771772        0.00000000        0.00000000        0.00000000
        -26.35705706        0.00000000        0.00000000        0.00000000
        -26.29639640        0.00000000        0.00000000        0.00000000
        -26.23573574        0.00000000        0.00000000        0.00000000
        -26.17507508        0.00000000        0.00000000        0.00000000
        -26.11441441        0.00000000        0.00000000        0.00000000
        -26.05375375        0.00000000        0.00000000        0.00000000
        -25.99309309        0.00000000        0.00000000        0.00000000
        -25.93243243        0.00000000        0.00000000        0.00000000
        -25.87177177        0.00000000        0.00000000        0.00000000
        -25.81111111        0.00000000        0.00000000        0.00000000
        -25.75045045        0.00000000        0.00000000        0.00000000
        -25.68978979        0.00000000        0.00000000        0.00000000
        -25.62912913        0.00000000        0.00000000        0.00000000
        -25.56846847        0.00000000        0.00000000        0.00000000
        -25.50780781        0.00000000        0.00000000        0.00000000
        -25.44714715        0.00000000        0.00000000        0.00000000
        -25.38648649        0.00000000        0.00000000        0.00000000
        -25.32582583        0.00000000        0.00000000        0.00000000
        -25.26516517        0.00000000        0.00000000        0.00000000
        -25.20450450        0.00000000        0.00000000        0.00000000
        -25.14384384        0.00000000        0.00000000        0.00000000
        -25.08318318        0.00000000        0.00000000        0.00000000
        -25.02252252        0.00000000        0.00000000        0.00000000
        -24.96186186        0.00000000        0.00000000        0.00000000
        -24.90120120        0.00000000        0.00000000        0.00000000
        -24.84054054        0.00000000        0.00000000        0.00000000
        -24.77987988        0.00000000        0.00000000        0.00000000
        -24.71921922        0.00000000        0.00000000        0.00000000
        -24.65855856        0.00000000        0.00000000        0.00000000
        -24.59789790        0.00000000        0.00000000        0.00000000
        -24.53723724        0.00000000        0.00000000        0.00000000
        -24.47657658        0.00000000        0.00000000        0.00000000
        -24.41591592        0.00000000        0.00000000        0.00000000
        -24.35525526        0.00000000        0.00000000        0.00000000
        -24.29459459        0.00000000        0.00000000        0.00000000
        -24.23393393        0.00000000        0.00000000        0.00000000
        -24.17327327        0.00000000        0.00000000        0.00000000
        -24.11261261        0.00000000        0.00000000        0.00000000
        -24.05195195        0.00000000        0.00000000        0.00000000
        -23.99129129        0.00000000        0.00000000        0.00000000
        -23.93063063        0.00000000        0.00000000        0.00000000
        -23.86996997        0.00000000        0.00000000        0.00000000
        -23.80930931        0.00000000        0.00000000        0.00000000
        -23.74864865        0.00000000        0.00000000        0.00000000
        -23.68798799        0.00000000        0.00000000        0.00000000
        -23.62732733        0.00000000        0.00000000        0.00000000
        -23.56666667        0.00000000        0.00000000        0.00000000
        -23.50600601        0.00000000        0.00000000        0.00000000
        -23.44534535        0.00000000        0.00000000        0.00000000
        -23.38468468        0.00000000        0.00000000        0.00000000
        -23.32402402        0.00000000        0.00000000        0.00000000
        -23.26336336        0.00000000        0.00000000        0.00000000
        -23.20270270        0.00000000        0.00000000        0.00000000
        -23.14204204        0.00000000        0.00000000        0.00000000
        -23.08138138        0.00000000        0.00000000        0.00000000
        -23.02072072        0.00000000        0.00000000        0.00000000
        -22.96006006        0.00000000        0.00000000        0.00000000
        -22.89939940        0.00000000        0.00000000        0.00000000
        -22.83873874        0.00000000        0.00000000        0.00000000
        -22.77807808        0.00000000        0.00000000        0.00000000
        -22.71741742        0.00000000        0.00000000        0.00000000
        -22.65675676        0.00000000        0.00000000        0.00000000
        -22.59609610        0.00000000        0.00000000        0.00000000
        -22.53543544        0.00000000        0.00000000        0.00000000
        -22.47477477        0.00000000        0.00000000        0.00000000
        -22.41411411        0.00000000        0.00000000        0.00000000
        -22.35345345        0.00000000        0.00000000        0.00000000
        -22.29279279        0.00000000        0.00000000        0.00000000
        -22.23213213        0.00000000        0.00000000        0.00000000
        -22.17147147        0.00000000        0.00000000        0.00000000
        -22.11081081        0.00000000        0.00000000        0.00000000
        -22.05015015        0.00000000        0.00000000        0.00000000
        -21.98948949        0.00000000        0.00000000        0.00000000
        -21.92882883        0.00000000        0.00000000        0.00000000
        -21.86816817        0.00000000        0.00000000        0.00000000
        -21.80750751        0.00000000        0.00000000        0.00000000
        -21.74684685        0.00000000        0.00000000        0.00000000
        -21.68618619        0.00000000        0.00000000        0.00000000
        -21.62552553        0.00000000        0.00000000        0.00000000
        -21.56486486        0.00000000        0.00000000        0.00000000
        -21.50420420        0.00000000        0.00000000        0.00000000
        -21.44354354        0.00000000        0.00000000        0.00000000
        -21.38288288        0.00000000        0.00000000        0.00000000
        -21.32222222        0.00000000        0.00000000        0.00000000
        -21.26156156        0.00000000        0.00000000        0.00000000
        -21.20090090        0.00000000        0.00000000        0.00000000
        -21.14024024        0.00000000        0.00000000        0.00000000
        -21.07957958        0.00000000        0.00000000        0.00000000
        -21.01891892        0.00000000        0.00000000        0.00000000
        -20.95825826        0.00000000        0.00000000        0.00000000
        -20.89759760        0.00000000        0.00000000        0.00000000
        -20.83693694        0.00000000        0.00000000        0.00000000
        -20.77627628        0.00000137        0.00000136        0.00000273
        -20.71561562        0.00002956        0.00002942        0.00005897
        -20.65495495        0.00031054        0.00030939        0.00061993
        -20.59429429        0.00161131        0.00160696        0.00321827
        -20.53363363        0.00429304        0.00428553        0.00857857
        -20.47297297        0.00673290        0.00672605        0.01345895
        -20.41231231        0.00914249        0.00913491        0.01827740
        -20.35165165        0.01474920        0.01473323        0.02948243
        -20.29099099        0.02295855        0.02292972        0.04588827
        -20.23033033        0.02769709        0.02766460        0.05536169
        -20.16966967        0.02493879        0.02491541        0.04985420
        -20.10900901        0.02141872        0.02140046        0.04281918
        -20.04834835        0.02172035        0.02170002        0.04342037
        -19.98768769        0.02132701        0.02130888        0.04263589
        -19.92702703        0.01957610        0.01955980        0.03913591
        -19.86636637        0.02039418        0.02037469        0.04076887
        -19.80570571        0.02220980        0.02219012        0.04439991
        -19.74504505        0.02140463        0.02138896        0.04279359
        -19.68438438        0.02008413        0.02007042        0.04015456
        -19.62372372        0.02088603        0.02087187        0.04175790
        -19.56306306        0.02211248        0.02209838        0.04421085
        -19.50240240        0.02152445        0.02151193        0.04303638
        -19.44174174        0.01960166        0.01959060        0.03919226
        -19.38108108        0.01797341        0.01796206        0.03593546
        -19.32042042        0.01736426        0.01735206        0.03471632
        -19.25975976        0.01785151        0.01783929        0.03569080
        -19.19909910        0.01873341        0.01872219        0.03745560
        -19.13843844        0.01880365        0.01879379        0.03759744
        -19.07777778        0.01798972        0.01798058        0.03597031
        -19.01711712        0.01691623        0.01690683        0.03382305
        -18.95645646        0.01613939        0.01612886        0.03226824
        -18.89579580        0.01612772        0.01611661        0.03224433
        -18.83513514        0.01643375        0.01642358        0.03285733
        -18.77447447        0.01622536        0.01621607        0.03244143
        -18.71381381        0.01569390        0.01568466        0.03137856
        -18.65315315        0.01529575        0.01528624        0.03058200
        -18.59249249        0.01459348        0.01458324        0.02917672
        -18.53183183        0.01383490        0.01382406        0.02765896
        -18.47117117        0.01401605        0.01400492        0.02802097
        -18.41051051        0.01580009        0.01578824        0.03158833
        -18.34984985        0.01783874        0.01782839        0.03566713
        -18.28918919        0.01815869        0.01815111        0.03630981
        -18.22852853        0.01647080        0.01646369        0.03293449
        -18.16786787        0.01406575        0.01405735        0.02812311
        -18.10720721        0.01217918        0.01216965        0.02434883
        -18.04654655        0.01070659        0.01069950        0.02140609
        -17.98588589        0.00939440        0.00939176        0.01878616
        -17.92522523        0.00744301        0.00744179        0.01488480
        -17.86456456        0.00411178        0.00411072        0.00822250
        -17.80390390        0.00127623        0.00127581        0.00255204
        -17.74324324        0.00020270        0.00020263        0.00040533
        -17.68258258        0.00001605        0.00001604        0.00003209
        -17.62192192        0.00000064        0.00000064        0.00000129
        -17.56126126        0.00000000        0.00000000        0.00000001
        -17.50060060        0.00000000        0.00000000        0.00000000
        -17.43993994        0.00000000        0.00000000        0.00000000
        -17.37927928        0.00000000        0.00000000        0.00000000
        -17.31861862        0.00000126        0.00000125        0.00000251
        -17.25795796        0.00004465        0.00004439        0.00008904
        -17.19729730        0.00071476        0.00071143        0.00142619
        -17.13663664        0.00560300        0.00558347        0.01118647
        -17.07597598        0.02195467        0.02190208        0.04385675
        -17.01531532        0.04512324        0.04505835        0.09018159
        -16.95465465        0.05484641        0.05480707        0.10965348
        -16.89399399        0.05216169        0.05213736        0.10429904
        -16.83333333        0.05507299        0.05503456        0.11010755
        -16.77267267        0.05970184        0.05965649        0.11935833
        -16.71201201        0.05145408        0.05142398        0.10287807
        -16.65135135        0.03955794        0.03953739        0.07909533
        -16.59069069        0.03784493        0.03781770        0.07566264
        -16.53003003        0.04093061        0.04089733        0.08182794
        -16.46936937        0.04146810        0.04143611        0.08290420
        -16.40870871        0.04213270        0.04209992        0.08423262
        -16.34804805        0.04475231        0.04471564        0.08946794
        -16.28738739        0.04799621        0.04795794        0.09595415
        -16.22672673        0.05008845        0.05005518        0.10014363
        -16.16606607        0.05018813        0.05015786        0.10034600
        -16.10540541        0.05054149        0.05050702        0.10104851
        -16.04474474        0.05089090        0.05085299        0.10174389
        -15.98408408        0.05308235        0.05303830        0.10612065
        -15.92342342        0.06342442        0.06336617        0.12679059
        -15.86276276        0.07821323        0.07814746        0.15636069
        -15.80210210        0.08803694        0.08797385        0.17601080
        -15.74144144        0.09422871        0.09416582        0.18839454
        -15.68078078        0.09733205        0.09726674        0.19459880
        -15.62012012        0.09958818        0.09950625        0.19909443
        -15.55945946        0.11129715        0.11118102        0.22247817
        -15.49879880        0.13220306        0.13207094        0.26427400
        -15.43813814        0.14210525        0.14199826        0.28410351
        -15.37747748        0.14060075        0.14050456        0.28110532
        -15.31681682        0.15190135        0.15177661        0.30367795
        -15.25615616        0.17048581        0.17032204        0.34080786
        -15.19549550        0.18652325        0.18632799        0.37285124
        -15.13483483        0.19867742        0.19851600        0.39719343
        -15.07417417        0.20035825        0.20024189        0.40060015
        -15.01351351        0.20382836        0.20371282        0.40754118
        -14.95285285        0.20596604        0.20588299        0.41184903
        -14.89219219        0.18743476        0.18740618        0.37484095
        -14.83153153        0.15783158        0.15781122        0.31564280
        -14.77087087        0.13244459        0.13240828        0.26485286
        -14.71021021        0.10321139        0.10318384        0.20639523
        -14.64954955        0.06919759        0.06919702        0.13839461
        -14.58888889        0.03820232        0.03822357        0.07642589
        -14.52822823        0.01617490        0.01619290        0.03236780
        -14.46756757        0.00543512        0.00544111        0.01087623
        -14.40690691        0.00147616        0.00147713        0.00295330
        -14.34624625        0.00027412        0.00027421        0.00054832
        -14.28558559        0.00004026        0.00004010        0.00008036
        -14.22492492        0.00028510        0.00028152        0.00056662
        -14.16426426        0.00390826        0.00387292        0.00778119
        -14.10360360        0.02684965        0.02669479        0.05354445
        -14.04294294        0.09484065        0.09454839        0.18938904
        -13.98228228        0.18502796        0.18476723        0.36979519
        -13.92162162        0.23113312        0.23086360        0.46199672
        -13.86096096        0.23900101        0.23851987        0.47752088
        -13.80030030        0.27368459        0.27298778        0.54667237
        -13.73963964        0.35966643        0.35894879        0.71861522
        -13.67897898        0.44461485        0.44421853        0.88883338
        -13.61831832        0.45477029        0.45477608        0.90954637
        -13.55765766        0.38989557        0.39001871        0.77991427
        -13.49699700        0.31436233        0.31438234        0.62874467
        -13.43633634        0.26637695        0.26627952        0.53265647
        -13.37567568        0.25231027        0.25211924        0.50442951
        -13.31501502        0.26178289        0.26157667        0.52335956
        -13.25435435        0.26953377        0.26940869        0.53894246
        -13.19369369        0.26697960        0.26688641        0.53386601
        -13.13303303        0.25992320        0.25981106        0.51973426
        -13.07237237        0.24156462        0.24145767        0.48302229
        -13.01171171        0.21633507        0.21623822        0.43257329
        -12.95105105        0.20851223        0.20840936        0.41692159
        -12.89039039        0.22141302        0.22128408        0.44269710
        -12.82972973        0.23453904        0.23438701        0.46892605
        -12.76906907        0.23284480        0.23271713        0.46556193
        -12.70840841        0.21302647        0.21296310        0.42598957
        -12.64774775        0.18796757        0.18792912        0.37589670
        -12.58708709        0.17570004        0.17564678        0.35134682
        -12.52642643        0.16253085        0.16249114        0.32502200
        -12.46576577        0.12933539        0.12931826        0.25865365
        -12.40510511        0.09032137        0.09030627        0.18062765
        -12.34444444        0.06013108        0.06011822        0.12024929
        -12.28378378        0.04062788        0.04061157        0.08123945
        -12.22312312        0.03743387        0.03738197        0.07481583
        -12.16246246        0.06459211        0.06447038        0.12906249
        -12.10180180        0.11354086        0.11338721        0.22692807
        -12.04114114        0.13938378        0.13927004        0.27865382
        -11.98048048        0.14636739        0.14624823        0.29261562
        -11.91981982        0.18755681        0.18732643        0.37488323
        -11.85915916        0.25213074        0.25177670        0.50390744
        -11.79849850        0.28766568        0.28723594        0.57490162
        -11.73783784        0.29748829        0.29702530        0.59451359
        -11.67717718        0.30852504        0.30809432        0.61661937
        -11.61651652        0.30997371        0.30961852        0.61959223
        -11.55585586        0.30221979        0.30188162        0.60410141
        -11.49519520        0.31544809        0.31502059        0.63046868
        -11.43453453        0.35361932        0.35308850        0.70670783
        -11.37387387        0.36532889        0.36481744        0.73014633
        -11.31321321        0.32427906        0.32387570        0.64815476
        -11.25255255        0.26233841        0.26207385        0.52441226
        -11.19189189        0.20330038        0.20312035        0.40642073
        -11.13123123        0.16770645        0.16734923        0.33505568
        -11.07057057        0.18553129        0.18490637        0.37043767
        -11.00990991        0.23020943        0.22983776        0.46004718
        -10.94924925        0.22255010        0.22274828        0.44529838
        -10.88858859        0.17019150        0.17042057        0.34061206
        -10.82792793        0.15149690        0.15137396        0.30287086
        -10.76726727        0.19527147        0.19484593        0.39011740
        -10.70660661        0.26727862        0.26660884        0.53388746
        -10.64594595        0.34781518        0.34671310        0.69452828
        -10.58528529        0.46363769        0.46188501        0.92552270
        -10.52462462        0.60556704        0.60350220        1.20906924
        -10.46396396        0.69825547        0.69673962        1.39499508
        -10.40330330        0.69851141        0.69770886        1.39622027
        -10.34264264        0.67062243        0.66976066        1.34038309
        -10.28198198        0.65640416        0.65513096        1.31153512
        -10.22132132        0.62135851        0.62017415        1.24153266
        -10.16066066        0.56288318        0.56218089        1.12506407
        -10.10000000        0.53313450        0.53250091        1.06563540
        -10.03933934        0.57040242        0.56935466        1.13975709
         -9.97867868        0.63556279        0.63429141        1.26985420
         -9.91801802        0.65370836        0.65266576        1.30637412
         -9.85735736        0.64622695        0.64532144        1.29154839
         -9.79669670        0.66775971        0.66682641        1.33458613
         -9.73603604        0.68804601        0.68715408        1.37520009
         -9.67537538        0.70914693        0.70818394        1.41733087
         -9.61471471        0.71886364        0.71784516        1.43670880
         -9.55405405        0.69294938        0.69175302        1.38470241
         -9.49339339        0.72638195        0.72464897        1.45103092
         -9.43273273        0.83733601        0.83508286        1.67241887
         -9.37207207        0.94619961        0.94367643        1.88987604
         -9.31141141        1.02080970        1.01820406        2.03901376
         -9.25075075        1.07106375        1.06842305        2.13948680
         -9.19009009        1.14371235        1.14082997        2.28454232
         -9.12942943        1.25603614        1.25283794        2.50887408
         -9.06876877        1.34392519        1.34058698        2.68451217
         -9.00810811        1.35697397        1.35361561        2.71058958
         -8.94744745        1.29457414        1.29123266        2.58580680
         -8.88678679        1.20333057        1.19979692        2.40312749
         -8.82612613        1.14935250        1.14490886        2.29426136
         -8.76546547        1.16521232        1.15847303        2.32368534
         -8.70480480        1.23887219        1.22696022        2.46583241
         -8.64414414        1.42666418        1.39805457        2.82471875
         -8.58348348        2.19036838        2.11949187        4.30986025
         -8.52282282        3.85564911        3.76936688        7.62501599
         -8.46216216        4.76894299        4.77767654        9.54661953
         -8.40150150        3.45070372        3.54566583        6.99636955
         -8.34084084        1.66619707        1.73366666        3.39986372
         -8.28018018        0.94682264        0.96184091        1.90866356
         -8.21951952        1.04241658        1.01461002        2.05702659
         -8.15885886        1.78768990        1.70953692        3.49722682
         -8.09819820        2.79794010        2.69799316        5.49593326
         -8.03753754        3.55255086        3.47697810        7.02952895
         -7.97687688        4.35594909        4.32883903        8.68478811
         -7.91621622        6.00653134        5.95650222       11.96303355
         -7.85555556       11.43834980       11.19877132       22.63712111
         -7.79489489       21.05012526       20.70953729       41.75966255
         -7.73423423       27.30858654       27.16809351       54.47668005
         -7.67357357       26.75793234       26.75959916       53.51753149
         -7.61291291       26.23012650       26.12815404       52.35828054
         -7.55225225       28.36351956       28.18799286       56.55151242
         -7.49159159       32.25769426       31.91528321       64.17297747
         -7.43093093       38.89501131       38.59122306       77.48623436
         -7.37027027       39.69548568       39.95968196       79.65516764
         -7.30960961       30.93320969       31.39160025       62.32480995
         -7.24894895       25.88762744       25.93449169       51.82211912
         -7.18828829       31.21659116       30.95083487       62.16742603
         -7.12762763       38.99924931       38.74546871       77.74471803
         -7.06696697       41.52719705       41.53138742       83.05858447
         -7.00630631       38.98928783       39.18678644       78.17607427
         -6.94564565       38.08683060       38.17165681       76.25848741
         -6.88498498       39.17009832       39.19635293       78.36645125
         -6.82432432       40.23381213       40.09119290       80.32500503
         -6.76366366       48.87350570       48.33010936       97.20361505
         -6.70300300       62.39021458       61.90812022      124.29833480
         -6.64234234       70.66027319       70.53597234      141.19624553
         -6.58168168       73.61496302       73.75908035      147.37404337
         -6.52102102       69.81033551       70.14551562      139.95585113
         -6.46036036       62.07564429       62.23489904      124.31054333
         -6.39969970       62.45362994       62.17133199      124.62496193
         -6.33903904       71.80717167       71.45897004      143.26614171
         -6.27837838       76.83108202       76.83829851      153.66938053
         -6.21771772       70.64737240       70.96333692      141.61070932
         -6.15705706       59.84866716       60.13327158      119.98193874