#            ENERGY              s1              s2              total
        -30.30000000        0.00000000        0.00000000        0.00000000
        -30.23933934        0.00000084        0.00000081        0.00000166
        -30.17867868        0.00002378        0.00002302        0.00004680
        -30.11801802        0.00032082        0.00031290        0.00063371
        -30.05735736        0.00209156        0.00205587        0.00414743
        -29.99669670        0.00672123        0.00665831        0.01337954
        -29.93603604        0.01170986        0.01167647        0.02338633
        -29.87537538        0.01624259        0.01620825        0.03245084
        -29.81471471        0.02791854        0.02782420        0.05574274
        -29.75405405        0.04299173        0.04298549        0.08597722
        -29.69339339        0.05097827        0.05106879        0.10204706
        -29.63273273        0.06046314        0.06046519        0.12092833
        -29.57207207        0.07492737        0.07488333        0.14981070
        -29.51141141        0.09171253        0.09173548        0.18344800
        -29.45075075        0.10640145        0.10648809        0.21288954
        -29.39009009        0.09857815        0.09864976        0.19722791
        -29.32942943        0.07354536        0.07353100        0.14707636
        -29.26876877        0.05536689        0.05529431        0.11066120
        -29.20810811        0.04348334        0.04347141        0.08695475
        -29.14744745        0.02894469        0.02903104        0.05797573
        -29.08678679        0.01395321        0.01404084        0.02799405
        -29.02612613        0.00476527        0.00480103        0.00956631
        -28.96546547        0.00234028        0.00234627        0.00468655
        -28.90480480        0.00291064        0.00291060        0.00582124
        -28.84414414        0.00255467        0.00255590        0.00511057
        -28.78348348        0.00110694        0.00110831        0.00221526
        -28.72282282        0.00023033        0.00023079        0.00046112
        -28.66216216        0.00002296        0.00002303        0.00004599
        -28.60150150        0.00000110        0.00000110        0.00000220
        -28.54084084        0.00000000        0.00000000        0.00000000
        -28.48018018        0.00000000        0.00000000        0.00000000
        -28.41951952        0.00000000        0.00000000        0.00000000
        -28.35885886        0.00000000        0.00000000        0.00000000
        -28.29819820        0.00000000        0.00000000        0.00000000
        -28.23753754        0.00000000        0.00000000        0.00000000
        -28.17687688        0.00000000        0.00000000        0.00000000
        -28.11621622        0.00000000        0.00000000        0.00000000
        -28.05555556        0.00000000        0.00000000        0.00000000
        -27.99489489        0.00000000        0.00000000        0.00000000
        -27.93423423        0.00000000        0.00000000        0.00000000
        -27.87357357        0.00000000        0.00000000        0.00000000
        -27.81291291        0.00000000        0.00000000        0.00000000
        -27.75225225        0.00000000        0.00000000        0.00000000
        -27.69159159        0.00000000        0.00000000        0.00000000
        -27.63093093        0.00000000        0.00000000        0.00000000
        -27.57027027        0.00000000        0.00000000        0.00000000
        -27.50960961        0.00000000        0.00000000        0.00000000
        -27.44894895        0.00000000        0.00000000        0.00000000
        -27.38828829        0.00000000        0.00000000        0.00000000
        -27.32762763        0.00000000        0.00000000        0.00000000
        -27.26696697        0.00000000        0.00000000        0.00000000
        -27.20630631        0.00000000        0.00000000        0.00000000
        -27.14564565        0.00000000        0.00000000        0.00000000
        -27.08498498        0.00000000        0.00000000        0.00000000
        -27.02432432        0.00000000        0.00000000        0.00000000
        -26.96366366        0.00000000        0.00000000        0.00000000
        -26.90300300        0.00000000        0.00000000        0.00000000
        -26.84234234        0.00000000        0.00000000        0.00000000
        -26.78168168        0.00000000        0.00000000        0.00000000
        -26.72102102        0.00000000        0.00000000        0.00000000
        -26.66036036        0.00000000        0.00000000        0.00000000
        -26.59969970        0.00000000        0.00000000        0.00000000
        -26.53903904        0.00000000        0.00000000        0.00000000
        -26.47837838        0.00000000        0.00000000        0.00000000
        -26.41771772        0.00000000        0.00000000        0.00000000
        -26.35705706        0.00000000        0.00000000        0.00000000
        -26.29639640        0.00000000        0.00000000        0.00000000
        -26.23573574        0.00000000        0.00000000        0.00000000
        -26.17507508        0.00000000        0.00000000        0.00000000
        -26.11441441        0.00000000        0.00000000        0.00000000
        -26.05375375        0.00000000        0.00000000        0.00000000
        -25.99309309        0.00000000        0.00000000        0.00000000
        -25.93243243        0.00000000        0.00000000        0.00000000
        -25.87177177        0.00000000        0.00000000        0.00000000
        -25.81111111        0.00000000        0.00000000        0.00000000
        -25.75045045        0.00000000        0.00000000        0.00000000
        -25.68978979        0.00000000        0.00000000        0.00000000
        -25.62912913        0.00000000        0.00000000        0.00000000
        -25.56846847        0.00000000        0.00000000        0.00000000
        -25.50780781        0.00000000        0.00000000        0.00000000
        -25.44714715        0.00000000        0.00000000        0.00000000
        -25.38648649        0.00000000        0.00000000        0.00000000
        -25.32582583        0.00000000        0.00000000        0.00000000
        -25.26516517        0.00000000        0.00000000        0.00000000
        -25.20450450        0.00000000        0.00000000        0.00000000
        -25.14384384        0.00000000        0.00000000        0.00000000
        -25.08318318        0.00000000        0.00000000        0.00000000
        -25.02252252        0.00000000        0.00000000        0.00000000
        -24.96186186        0.00000000        0.00000000        0.00000000
        -24.90120120        0.00000000        0.00000000        0.00000000
        -24.84054054        0.00000000        0.00000000        0.00000000
        -24.77987988        0.00000000        0.00000000        0.00000000
        -24.71921922        0.00000000        0.00000000        0.00000000
        -24.65855856        0.00000000        0.00000000        0.00000000
        -24.59789790        0.00000000        0.00000000        0.00000000
        -24.53723724        0.00000000        0.00000000        0.00000000
        -24.47657658        0.00000000        0.00000000        0.00000000
        -24.41591592        0.00000000        0.00000000        0.00000000
        -24.35525526        0.00000000        0.00000000        0.00000000
        -24.29459459        0.00000000        0.00000000        0.00000000
        -24.23393393        0.00000000        0.00000000        0.00000000
        -24.17327327        0.00000000        0.00000000        0.00000000
        -24.11261261        0.00000000        0.00000000        0.00000000
        -24.05195195        0.00000000        0.00000000        0.00000000
        -23.99129129        0.00000000        0.00000000        0.00000000
        -23.93063063        0.00000000        0.00000000        0.00000000
        -23.86996997        0.00000000        0.00000000        0.00000000
        -23.80930931        0.00000000        0.00000000        0.00000000
        -23.74864865        0.00000000        0.00000000        0.00000000
        -23.68798799        0.00000000        0.00000000        0.00000000
        -23.62732733        0.00000000        0.00000000        0.00000000
        -23.56666667        0.00000000        0.00000000        0.00000000
        -23.50600601        0.00000000        0.00000000        0.00000000
        -23.44534535        0.00000000        0.00000000        0.00000000
        -23.38468468        0.00000000        0.00000000        0.00000000
        -23.32402402        0.00000000        0.00000000        0.00000000
        -23.26336336        0.00000000        0.00000000        0.00000000
        -23.20270270        0.00000000        0.00000000        0.00000000
        -23.14204204        0.00000000        0.00000000        0.00000000
        -23.08138138        0.00000000        0.00000000        0.00000000
        -23.02072072        0.00000000        0.00000000        0.00000000
        -22.96006006        0.00000000        0.00000000        0.00000000
        -22.89939940        0.00000000        0.00000000        0.00000000
        -22.83873874        0.00000000        0.00000000        0.00000000
        -22.77807808        0.00000000        0.00000000        0.00000000
        -22.71741742        0.00000000        0.00000000        0.00000000
        -22.65675676        0.00000000        0.00000000        0.00000000
        -22.59609610        0.00000000        0.00000000        0.00000000
        -22.53543544        0.00000000        0.00000000        0.00000000
        -22.47477477        0.00000000        0.00000000        0.00000000
        -22.41411411        0.00000000        0.00000000        0.00000000
        -22.35345345        0.00000000        0.00000000        0.00000000
        -22.29279279        0.00000000        0.00000000        0.00000000
        -22.23213213        0.00000000        0.00000000        0.00000000
        -22.17147147        0.00000000        0.00000000        0.00000000
        -22.11081081        0.00000000        0.00000000        0.00000000
        -22.05015015        0.00000000        0.00000000        0.00000000
        -21.98948949        0.00000000        0.00000000        0.00000000
        -21.92882883        0.00000000        0.00000000        0.00000000
        -21.86816817        0.00000000        0.00000000        0.00000000
        -21.80750751        0.00000000        0.00000000        0.00000000
        -21.74684685        0.00000000        0.00000000        0.00000000
        -21.68618619        0.00000000        0.00000000        0.00000000
        -21.62552553        0.00000000        0.00000000        0.00000000
        -21.56486486        0.00000000        0.00000000        0.00000000
        -21.50420420        0.00000000        0.00000000        0.00000000
        -21.44354354        0.00000000        0.00000000        0.00000000
        -21.38288288        0.00000000        0.00000000        0.00000000
        -21.32222222        0.00000000        0.00000000        0.00000000
        -21.26156156        0.00000000        0.00000000        0.00000000
        -21.20090090        0.00000000        0.00000000        0.00000000
        -21.14024024        0.00000000        0.00000000        0.00000000
        -21.07957958        0.00000000        0.00000000        0.00000000
        -21.01891892        0.00000000        0.00000000        0.00000000
        -20.95825826        0.00000000        0.00000000        0.00000000
        -20.89759760        0.00000000        0.00000000        0.00000000
        -20.83693694        0.00000002        0.00000002        0.00000004
        -20.77627628        0.00000060        0.00000060        0.00000120
        -20.71561562        0.00000802        0.00000798        0.00001599
        -20.65495495        0.00005114        0.00005098        0.00010213
        -20.59429429        0.00015393        0.00015389        0.00030782
        -20.53363363        0.00020400        0.00020516        0.00040916
        -20.47297297        0.00008193        0.00008500        0.00016693
        -20.41231231        0.00006046        0.00006208        0.00012254
        -20.35165165        0.00045861        0.00045399        0.00091260
        -20.29099099        0.00096321        0.00095506        0.00191827
        -20.23033033        0.00184730        0.00183721        0.00368451
        -20.16966967        0.00419075        0.00418015        0.00837090
        -20.10900901        0.00763398        0.00762971        0.01526369
        -20.04834835        0.01090060        0.01089935        0.02179996
        -19.98768769        0.01192915        0.01191837        0.02384752
        -19.92702703        0.01133494        0.01131138        0.02264632
        -19.86636637        0.01162796        0.01161168        0.02323964
        -19.80570571        0.01244369        0.01244957        0.02489326
        -19.74504505        0.01287028        0.01288253        0.02575281
        -19.68438438        0.01255168        0.01255013        0.02510181
        -19.62372372        0.01159111        0.01157834        0.02316945
        -19.56306306        0.01018097        0.01017167        0.02035264
        -19.50240240        0.00860695        0.00860340        0.01721035
        -19.44174174        0.00768994        0.00768499        0.01537493
        -19.38108108        0.00766160        0.00765363        0.01531523
        -19.32042042        0.00818907        0.00818045        0.01636952
        -19.25975976        0.00919635        0.00918822        0.01838456
        -19.19909910        0.01004313        0.01003594        0.02007907
        -19.13843844        0.00999548        0.00998924        0.01998472
        -19.07777778        0.00943539        0.00943164        0.01886703
        -19.01711712        0.00883387        0.00883226        0.01766613
        -18.95645646        0.00880007        0.00879772        0.01759779
        -18.89579580        0.00908851        0.00908665        0.01817516
        -18.83513514        0.00877281        0.00877163        0.01754444
        -18.77447447        0.00839555        0.00839232        0.01678787
        -18.71381381        0.00860674        0.00860210        0.01720884
        -18.65315315        0.00876635        0.00876338        0.01752973
        -18.59249249        0.00813824        0.00813733        0.01627557
        -18.53183183        0.00728830        0.00728679        0.01457509
        -18.47117117        0.00732683        0.00732241        0.01464924
        -18.41051051        0.00818148        0.00817555        0.01635703
        -18.34984985        0.00867832        0.00867128        0.01734959
        -18.28918919        0.00858798        0.00857769        0.01716567
        -18.22852853        0.00876926        0.00876121        0.01753047
        -18.16786787        0.00921025        0.00920998        0.01842023
        -18.10720721        0.00957730        0.00957914        0.01915645
        -18.04654655        0.01003602        0.01003070        0.02006671
        -17.98588589        0.01015549        0.01013618        0.02029167
        -17.92522523        0.00895349        0.00893973        0.01789322
        -17.86456456        0.00602569        0.00604707        0.01207277
        -17.80390390        0.00255997        0.00259086        0.00515082
        -17.74324324        0.00058914        0.00060188        0.00119102
        -17.68258258        0.00006812        0.00007025        0.00013836
        -17.62192192        0.00000383        0.00000399        0.00000781
        -17.56126126        0.00000010        0.00000011        0.00000021
        -17.50060060        0.00000000        0.00000000        0.00000000
        -17.43993994        0.00000005        0.00000005        0.00000010
        -17.37927928        0.00000129        0.00000126        0.00000255
        -17.31861862        0.00001633        0.00001604        0.00003237
        -17.25795796        0.00009939        0.00009799        0.00019738
        -17.19729730        0.00029598        0.00029283        0.00058881
        -17.13663664        0.00051649        0.00051216        0.00102865
        -17.07597598        0.00113588        0.00112575        0.00226163
        -17.01531532        0.00365844        0.00363046        0.00728890
        -16.95465465        0.00909284        0.00904656        0.01813941
        -16.89399399        0.01657548        0.01653283        0.03310831
        -16.83333333        0.02458932        0.02456759        0.04915691
        -16.77267267        0.03050617        0.03049276        0.06099893
        -16.71201201        0.02993896        0.02992543        0.05986439
        -16.65135135        0.02598713        0.02597621        0.05196334
        -16.59069069        0.02529458        0.02528422        0.05057879
        -16.53003003        0.02623389        0.02622213        0.05245601
        -16.46936937        0.02562142        0.02560876        0.05123018
        -16.40870871        0.02413980        0.02412905        0.04826886
        -16.34804805        0.02331151        0.02330325        0.04661477
        -16.28738739        0.02327607        0.02326704        0.04654312
        -16.22672673        0.02300083        0.02298885        0.04598968
        -16.16606607        0.02262562        0.02261039        0.04523601
        -16.10540541        0.02352480        0.02350400        0.04702880
        -16.04474474        0.02578233        0.02575194        0.05153427
        -15.98408408        0.02787053        0.02783242        0.05570295
        -15.92342342        0.02878099        0.02874803        0.05752902
        -15.86276276        0.02847014        0.02844761        0.05691775
        -15.80210210        0.02965150        0.02962742        0.05927892
        -15.74144144        0.03274514        0.03271039        0.06545552
        -15.68078078        0.03625728        0.03620935        0.07246663
        -15.62012012        0.04042968        0.04037013        0.08079980
        -15.55945946        0.04531702        0.04524503        0.09056205
        -15.49879880        0.05060211        0.05053016        0.10113227
        -15.43813814        0.05325280        0.05317800        0.10643081
        -15.37747748        0.05726340        0.05711904        0.11438244
        -15.31681682        0.06904414        0.06879886        0.13784300
        -15.25615616        0.08634505        0.08606567        0.17241072
        -15.19549550        0.10828111        0.10805058        0.21633169
        -15.13483483        0.12914346        0.12902436        0.25816782
        -15.07417417        0.13987008        0.13984570        0.27971577
        -15.01351351        0.14044918        0.14045894        0.28090812
        -14.95285285        0.13146259        0.13147706        0.26293965
        -14.89219219        0.11711141        0.11710940        0.23422081
        -14.83153153        0.10703993        0.10699543        0.21403536
        -14.77087087        0.10637262        0.10626451        0.21263713
        -14.71021021        0.11129067        0.11117881        0.22246947
        -14.64954955        0.10298784        0.10298712        0.20597496
        -14.58888889        0.07120658        0.07128430        0.14249088
        -14.52822823        0.03850747        0.03854885        0.07705632
        -14.46756757        0.02239427        0.02241134        0.04480561
        -14.40690691        0.01310386        0.01314911        0.02625297
        -14.34624625        0.00483395        0.00487157        0.00970551
        -14.28558559        0.00091154        0.00092277        0.00183431
        -14.22492492        0.00010836        0.00010704        0.00021540
        -14.16426426        0.00044090        0.00040322        0.00084411
        -14.10360360        0.00369826        0.00346868        0.00716694
        -14.04294294        0.01518829        0.01461838        0.02980667
        -13.98228228        0.03159451        0.03116521        0.06275971
        -13.92162162        0.03919675        0.03935614        0.07855289
        -13.86096096        0.04154245        0.04178023        0.08332268
        -13.80030030        0.04542637        0.04551109        0.09093746
        -13.73963964        0.05610996        0.05611676        0.11222672
        -13.67897898        0.08848983        0.08835875        0.17684858
        -13.61831832        0.13933413        0.13908492        0.27841905
        -13.55765766        0.18603912        0.18569820        0.37173732
        -13.49699700        0.20425143        0.20385943        0.40811086
        -13.43633634        0.19771727        0.19739499        0.39511226
        -13.37567568        0.18164255        0.18147754        0.36312009
        -13.31501502        0.16569041        0.16565495        0.33134536
        -13.25435435        0.15227041        0.15228618        0.30455659
        -13.19369369        0.13782822        0.13784368        0.27567191
        -13.13303303        0.12296582        0.12298422        0.24595004
        -13.07237237        0.10989486        0.10989976        0.21979462
        -13.01171171        0.10291626        0.10286310        0.20577936
        -12.95105105        0.10288574        0.10278078        0.20566653
        -12.89039039        0.10228077        0.10218356        0.20446434
        -12.82972973        0.10289193        0.10281415        0.20570608
        -12.76906907        0.11637206        0.11626369        0.23263575
        -12.70840841        0.13234123        0.13220589        0.26454712
        -12.64774775        0.12962325        0.12952996        0.25915321
        -12.58708709        0.11394051        0.11388839        0.22782890
        -12.52642643        0.09959104        0.09955330        0.19914435
        -12.46576577        0.08479200        0.08477408        0.16956609
        -12.40510511        0.07068677        0.07068297        0.14136974
        -12.34444444        0.06193414        0.06194618        0.12388032
        -12.28378378        0.05237306        0.05237052        0.10474358
        -12.22312312        0.04192579        0.04185171        0.08377750
        -12.16246246        0.03619142        0.03610022        0.07229164
        -12.10180180        0.02959466        0.02957107        0.05916573
        -12.04114114        0.02106733        0.02106281        0.04213014
        -11.98048048        0.02067386        0.02059712        0.04127099
        -11.91981982        0.03848273        0.03826450        0.07674723
        -11.85915916        0.07482702        0.07444754        0.14927456
        -11.79849850        0.11446313        0.11395599        0.22841911
        -11.73783784        0.14379301        0.14323444        0.28702745
        -11.67717718        0.15720462        0.15671167        0.31391628
        -11.61651652        0.15509831        0.15461328        0.30971159
        -11.55585586        0.15237572        0.15171691        0.30409264
        -11.49519520        0.16661189        0.16582129        0.33243318
        -11.43453453        0.19413499        0.19350927        0.38764426
        -11.37387387        0.20928743        0.20896171        0.41824915
        -11.31321321        0.19403680        0.19369040        0.38772720
        -11.25255255        0.16939305        0.16870875        0.33810180
        -11.19189189        0.16362497        0.16287625        0.32650122
        -11.13123123        0.16391133        0.16341664        0.32732797
        -11.07057057        0.15491036        0.15413057        0.30904093
        -11.00990991        0.16446480        0.16232567        0.32679048
        -10.94924925        0.20112390        0.19811194        0.39923584
        -10.88858859        0.20680573        0.20564963        0.41245536
        -10.82792793        0.15401566        0.15495088        0.30896654
        -10.76726727        0.11346069        0.11427006        0.22773075
        -10.70660661        0.12807606        0.12831292        0.25638898
        -10.64594595        0.15999516        0.15994208        0.31993724
        -10.58528529        0.16940699        0.16903702        0.33844401
        -10.52462462        0.17071406        0.16997583        0.34068989
        -10.46396396        0.19431421        0.19336843        0.38768264
        -10.40330330        0.20893904        0.20828145        0.41722050
        -10.34264264        0.18775161        0.18737451        0.37512612
        -10.28198198        0.16940948        0.16887514        0.33828462
        -10.22132132        0.17693987        0.17619553        0.35313540
        -10.16066066        0.19417508        0.19341975        0.38759483
        -10.10000000        0.21757853        0.21648025        0.43405879
        -10.03933934        0.26999324        0.26758897        0.53758221
         -9.97867868        0.33498075        0.33148108        0.66646182
         -9.91801802        0.35952930        0.35744658        0.71697588
         -9.85735736        0.35366500        0.35410907        0.70777407
         -9.79669670        0.36164006        0.36256526        0.72420532
         -9.73603604        0.37225453        0.37223793        0.74449246
         -9.67537538        0.37003551        0.36928148        0.73931699
         -9.61471471        0.36991283        0.36893898        0.73885180
         -9.55405405        0.38414732        0.38312737        0.76727469
         -9.49339339        0.41063149        0.40937216        0.82000365
         -9.43273273        0.45142887        0.44958484        0.90101371
         -9.37207207        0.51224793        0.51006096        1.02230889
         -9.31141141        0.56419524        0.56253902        1.12673426
         -9.25075075        0.56779961        0.56675119        1.13455080
         -9.19009009        0.55126971        0.54995609        1.10122580
         -9.12942943        0.56298360        0.56117235        1.12415595
         -9.06876877        0.56820523        0.56646591        1.13467114
         -9.00810811        0.52593707        0.52440264        1.05033971
         -8.94744745        0.48101316        0.47935722        0.96037038
         -8.88678679        0.47624162        0.47443522        0.95067684
         -8.82612613        0.48230790        0.48033324        0.96264113
         -8.76546547        0.47511424        0.47275804        0.94787228
         -8.70480480        0.46404291        0.46135964        0.92540255
         -8.64414414        0.46188087        0.45912359        0.92100446
         -8.58348348        0.46192928        0.45952949        0.92145876
         -8.52282282        0.43433392        0.43258822        0.86692214
         -8.46216216        0.38976504        0.38846730        0.77823234
         -8.40150150        0.38789975        0.38654013        0.77443988
         -8.34084084        0.50762001        0.50688481        1.01450482
         -8.28018018        0.95037334        0.95395231        1.90432565
         -8.21951952        2.08597878        2.09153735        4.17751613
         -8.15885886        3.22647673        3.21065182        6.43712855
         -8.09819820        2.81945651        2.75922235        5.57867886
         -8.03753754        1.75282231        1.63702326        3.38984557
         -7.97687688        1.64791814        1.50516303        3.15308117
         -7.91621622        2.02340494        1.95631616        3.97972109
         -7.85555556        2.03537421        2.06880297        4.10417718
         -7.79489489        1.78486403        1.83040138        3.61526541
         -7.73423423        1.65220659        1.67745190        3.32965849
         -7.67357357        1.64463106        1.68644521        3.33107627
         -7.61291291        1.55139304        1.61613053        3.16752357
         -7.55225225        1.51530240        1.54816547        3.06346787
         -7.49159159        2.21725781        2.15570761        4.37296542
         -7.43093093        4.05137389        3.87975887        7.93113275
         -7.37027027        6.37314712        6.19545233       12.56859944
         -7.30960961        7.92691988        7.94798619       15.87490607
         -7.24894895        7.41125719        7.63262817       15.04388536
         -7.18828829        5.07510322        5.23183429       10.30693750
         -7.12762763        3.12872189        3.13976720        6.26848908
         -7.06696697        2.41992347        2.41758636        4.83750983
         -7.00630631        1.93197778        1.95014921        3.88212699
         -6.94564565        1.86297618        1.83032035        3.69329653
         -6.88498498        2.60382170        2.54398874        5.14781045
         -6.82432432        3.35258199        3.31666485        6.66924684
         -6.76366366        3.79501618        3.77996748        7.57498366
         -6.70300300        3.70868446        3.74390899        7.45259346
         -6.64234234        2.97353772        3.04270196        6.01623968
         -6.58168168        2.40001692        2.44716435        4.84718127
         -6.52102102        2.03345837        2.06423129        4.09768965
         -6.46036036        1.48867519        1.49292392        2.98159910
         -6.39969970        1.17468073        1.14012894        2.31480967
         -6.33903904        1.09305796        1.06514055        2.15819852
         -6.27837838        0.86931625        0.88773836        1.75705462
         -6.21771772        0.55305543        0.58293377        1.13598920
         -6.15705706        0.38702445        0.39441206        0.78143650