#            ENERGY              s1              s2              total
        -30.30000000        0.00000000        0.00000000        0.00000000
        -30.23933934        0.00000077        0.00000074        0.00000152
        -30.17867868        0.00002182        0.00002106        0.00004288
        -30.11801802        0.00029454        0.00028646        0.00058099
        -30.05735736        0.00192461        0.00188645        0.00381107
        -29.99669670        0.00623880        0.00616282        0.01240162
        -29.93603604        0.01117017        0.01110580        0.02227597
        -29.87537538        0.01583765        0.01577056        0.03160821
        -29.81471471        0.02518917        0.02508459        0.05027377
        -29.75405405        0.03533049        0.03531320        0.07064369
        -29.69339339        0.04124318        0.04130964        0.08255282
        -29.63273273        0.05066998        0.05067081        0.10134079
        -29.57207207        0.06210279        0.06206539        0.12416818
        -29.51141141        0.07605454        0.07604242        0.15209697
        -29.45075075        0.09309477        0.09311577        0.18621054
        -29.39009009        0.08620662        0.08624700        0.17245362
        -29.32942943        0.05639211        0.05639458        0.11278668
        -29.26876877        0.03538509        0.03534127        0.07072636
        -29.20810811        0.02504074        0.02502001        0.05006076
        -29.14744745        0.01487493        0.01491017        0.02978510
        -29.08678679        0.00611736        0.00615769        0.01227505
        -29.02612613        0.00170056        0.00171624        0.00341680
        -28.96546547        0.00040002        0.00040276        0.00080278
        -28.90480480        0.00020872        0.00020882        0.00041754
        -28.84414414        0.00015719        0.00015717        0.00031436
        -28.78348348        0.00006705        0.00006709        0.00013414
        -28.72282282        0.00001393        0.00001394        0.00002787
        -28.66216216        0.00000139        0.00000139        0.00000278
        -28.60150150        0.00000007        0.00000007        0.00000013
        -28.54084084        0.00000000        0.00000000        0.00000000
        -28.48018018        0.00000000        0.00000000        0.00000000
        -28.41951952        0.00000000        0.00000000        0.00000000
        -28.35885886        0.00000000        0.00000000        0.00000000
        -28.29819820        0.00000000        0.00000000        0.00000000
        -28.23753754        0.00000000        0.00000000        0.00000000
        -28.17687688        0.00000000        0.00000000        0.00000000
        -28.11621622        0.00000000        0.00000000        0.00000000
        -28.05555556        0.00000000        0.00000000        0.00000000
        -27.99489489        0.00000000        0.00000000        0.00000000
        -27.93423423        0.00000000        0.00000000        0.00000000
        -27.87357357        0.00000000        0.00000000        0.00000000
        -27.81291291        0.00000000        0.00000000        0.00000000
        -27.75225225        0.00000000        0.00000000        0.00000000
        -27.69159159        0.00000000        0.00000000        0.00000000
        -27.63093093        0.00000000        0.00000000        0.00000000
        -27.57027027        0.00000000        0.00000000        0.00000000
        -27.50960961        0.00000000        0.00000000        0.00000000
        -27.44894895        0.00000000        0.00000000        0.00000000
        -27.38828829        0.00000000        0.00000000        0.00000000
        -27.32762763        0.00000000        0.00000000        0.00000000
        -27.26696697        0.00000000        0.00000000        0.00000000
        -27.20630631        0.00000000        0.00000000        0.00000000
        -27.14564565        0.00000000        0.00000000        0.00000000
        -27.08498498        0.00000000        0.00000000        0.00000000
        -27.02432432        0.00000000        0.00000000        0.00000000
        -26.96366366        0.00000000        0.00000000        0.00000000
        -26.90300300        0.00000000        0.00000000        0.00000000
        -26.84234234        0.00000000        0.00000000        0.00000000
        -26.78168168        0.00000000        0.00000000        0.00000000
        -26.72102102        0.00000000        0.00000000        0.00000000
        -26.66036036        0.00000000        0.00000000        0.00000000
        -26.59969970        0.00000000        0.00000000        0.00000000
        -26.53903904        0.00000000        0.00000000        0.00000000
        -26.47837838        0.00000000        0.00000000        0.00000000
        -26.41771772        0.00000000        0.00000000        0.00000000
        -26.35705706        0.00000000        0.00000000        0.00000000
        -26.29639640        0.00000000        0.00000000        0.00000000
        -26.23573574        0.00000000        0.00000000        0.00000000
        -26.17507508        0.00000000        0.00000000        0.00000000
        -26.11441441        0.00000000        0.00000000        0.00000000
        -26.05375375        0.00000000        0.00000000        0.00000000
        -25.99309309        0.00000000        0.00000000        0.00000000
        -25.93243243        0.00000000        0.00000000        0.00000000
        -25.87177177        0.00000000        0.00000000        0.00000000
        -25.81111111        0.00000000        0.00000000        0.00000000
        -25.75045045        0.00000000        0.00000000        0.00000000
        -25.68978979        0.00000000        0.00000000        0.00000000
        -25.62912913        0.00000000        0.00000000        0.00000000
        -25.56846847        0.00000000        0.00000000        0.00000000
        -25.50780781        0.00000000        0.00000000        0.00000000
        -25.44714715        0.00000000        0.00000000        0.00000000
        -25.38648649        0.00000000        0.00000000        0.00000000
        -25.32582583        0.00000000        0.00000000        0.00000000
        -25.26516517        0.00000000        0.00000000        0.00000000
        -25.20450450        0.00000000        0.00000000        0.00000000
        -25.14384384        0.00000000        0.00000000        0.00000000
        -25.08318318        0.00000000        0.00000000        0.00000000
        -25.02252252        0.00000000        0.00000000        0.00000000
        -24.96186186        0.00000000        0.00000000        0.00000000
        -24.90120120        0.00000000        0.00000000        0.00000000
        -24.84054054        0.00000000        0.00000000        0.00000000
        -24.77987988        0.00000000        0.00000000        0.00000000
        -24.71921922        0.00000000        0.00000000        0.00000000
        -24.65855856        0.00000000        0.00000000        0.00000000
        -24.59789790        0.00000000        0.00000000        0.00000000
        -24.53723724        0.00000000        0.00000000        0.00000000
        -24.47657658        0.00000000        0.00000000        0.00000000
        -24.41591592        0.00000000        0.00000000        0.00000000
        -24.35525526        0.00000000        0.00000000        0.00000000
        -24.29459459        0.00000000        0.00000000        0.00000000
        -24.23393393        0.00000000        0.00000000        0.00000000
        -24.17327327        0.00000000        0.00000000        0.00000000
        -24.11261261        0.00000000        0.00000000        0.00000000
        -24.05195195        0.00000000        0.00000000        0.00000000
        -23.99129129        0.00000000        0.00000000        0.00000000
        -23.93063063        0.00000000        0.00000000        0.00000000
        -23.86996997        0.00000000        0.00000000        0.00000000
        -23.80930931        0.00000000        0.00000000        0.00000000
        -23.74864865        0.00000000        0.00000000        0.00000000
        -23.68798799        0.00000000        0.00000000        0.00000000
        -23.62732733        0.00000000        0.00000000        0.00000000
        -23.56666667        0.00000000        0.00000000        0.00000000
        -23.50600601        0.00000000        0.00000000        0.00000000
        -23.44534535        0.00000000        0.00000000        0.00000000
        -23.38468468        0.00000000        0.00000000        0.00000000
        -23.32402402        0.00000000        0.00000000        0.00000000
        -23.26336336        0.00000000        0.00000000        0.00000000
        -23.20270270        0.00000000        0.00000000        0.00000000
        -23.14204204        0.00000000        0.00000000        0.00000000
        -23.08138138        0.00000000        0.00000000        0.00000000
        -23.02072072        0.00000000        0.00000000        0.00000000
        -22.96006006        0.00000000        0.00000000        0.00000000
        -22.89939940        0.00000000        0.00000000        0.00000000
        -22.83873874        0.00000000        0.00000000        0.00000000
        -22.77807808        0.00000000        0.00000000        0.00000000
        -22.71741742        0.00000000        0.00000000        0.00000000
        -22.65675676        0.00000000        0.00000000        0.00000000
        -22.59609610        0.00000000        0.00000000        0.00000000
        -22.53543544        0.00000000        0.00000000        0.00000000
        -22.47477477        0.00000000        0.00000000        0.00000000
        -22.41411411        0.00000000        0.00000000        0.00000000
        -22.35345345        0.00000000        0.00000000        0.00000000
        -22.29279279        0.00000000        0.00000000        0.00000000
        -22.23213213        0.00000000        0.00000000        0.00000000
        -22.17147147        0.00000000        0.00000000        0.00000000
        -22.11081081        0.00000000        0.00000000        0.00000000
        -22.05015015        0.00000000        0.00000000        0.00000000
        -21.98948949        0.00000000        0.00000000        0.00000000
        -21.92882883        0.00000000        0.00000000        0.00000000
        -21.86816817        0.00000000        0.00000000        0.00000000
        -21.80750751        0.00000000        0.00000000        0.00000000
        -21.74684685        0.00000000        0.00000000        0.00000000
        -21.68618619        0.00000000        0.00000000        0.00000000
        -21.62552553        0.00000000        0.00000000        0.00000000
        -21.56486486        0.00000000        0.00000000        0.00000000
        -21.50420420        0.00000000        0.00000000        0.00000000
        -21.44354354        0.00000000        0.00000000        0.00000000
        -21.38288288        0.00000000        0.00000000        0.00000000
        -21.32222222        0.00000000        0.00000000        0.00000000
        -21.26156156        0.00000000        0.00000000        0.00000000
        -21.20090090        0.00000000        0.00000000        0.00000000
        -21.14024024        0.00000000        0.00000000        0.00000000
        -21.07957958        0.00000000        0.00000000        0.00000000
        -21.01891892        0.00000000        0.00000000        0.00000000
        -20.95825826        0.00000000        0.00000000        0.00000000
        -20.89759760        0.00000000        0.00000000        0.00000000
        -20.83693694        0.00000004        0.00000004        0.00000008
        -20.77627628        0.00000110        0.00000109        0.00000219
        -20.71561562        0.00001475        0.00001456        0.00002931
        -20.65495495        0.00009458        0.00009363        0.00018821
        -20.59429429        0.00029391        0.00029161        0.00058552
        -20.53363363        0.00047927        0.00047620        0.00095547
        -20.47297297        0.00066891        0.00066333        0.00133224
        -20.41231231        0.00162834        0.00161095        0.00323928
        -20.35165165        0.00397310        0.00393569        0.00790879
        -20.29099099        0.00664717        0.00660401        0.01325118
        -20.23033033        0.00860207        0.00857425        0.01717632
        -20.16966967        0.01163980        0.01162188        0.02326169
        -20.10900901        0.01593703        0.01591834        0.03185536
        -20.04834835        0.01918272        0.01915738        0.03834010
        -19.98768769        0.02021571        0.02017612        0.04039183
        -19.92702703        0.01973489        0.01968358        0.03941847
        -19.86636637        0.01918008        0.01914249        0.03832257
        -19.80570571        0.01784530        0.01783158        0.03567688
        -19.74504505        0.01574263        0.01573020        0.03147283
        -19.68438438        0.01435311        0.01432277        0.02867587
        -19.62372372        0.01424432        0.01419887        0.02844319
        -19.56306306        0.01437548        0.01433356        0.02870905
        -19.50240240        0.01347148        0.01344324        0.02691473
        -19.44174174        0.01221608        0.01219388        0.02440995
        -19.38108108        0.01192268        0.01189962        0.02382230
        -19.32042042        0.01228565        0.01226255        0.02454819
        -19.25975976        0.01241648        0.01239584        0.02481232
        -19.19909910        0.01229056        0.01227138        0.02456194
        -19.13843844        0.01203021        0.01201049        0.02404070
        -19.07777778        0.01158816        0.01156906        0.02315722
        -19.01711712        0.01113411        0.01111702        0.02225113
        -18.95645646        0.01097053        0.01095448        0.02192501
        -18.89579580        0.01088875        0.01087397        0.02176272
        -18.83513514        0.01064454        0.01062937        0.02127391
        -18.77447447        0.01057513        0.01055593        0.02113107
        -18.71381381        0.01085926        0.01083734        0.02169660
        -18.65315315        0.01125593        0.01123601        0.02249194
        -18.59249249        0.01138338        0.01136456        0.02274794
        -18.53183183        0.01176000        0.01173844        0.02349843
        -18.47117117        0.01298492        0.01296143        0.02594635
        -18.41051051        0.01415047        0.01412812        0.02827859
        -18.34984985        0.01419610        0.01417313        0.02836923
        -18.28918919        0.01393041        0.01390121        0.02783162
        -18.22852853        0.01467450        0.01464328        0.02931778
        -18.16786787        0.01663743        0.01661468        0.03325211
        -18.10720721        0.01916506        0.01915247        0.03831753
        -18.04654655        0.02104960        0.02103664        0.04208624
        -17.98588589        0.02032787        0.02029858        0.04062645
        -17.92522523        0.01558633        0.01555555        0.03114188
        -17.86456456        0.00887472        0.00888195        0.01775667
        -17.80390390        0.00335814        0.00338448        0.00674262
        -17.74324324        0.00072840        0.00074079        0.00146919
        -17.68258258        0.00008193        0.00008411        0.00016604
        -17.62192192        0.00000454        0.00000470        0.00000924
        -17.56126126        0.00000012        0.00000013        0.00000025
        -17.50060060        0.00000000        0.00000000        0.00000000
        -17.43993994        0.00000061        0.00000060        0.00000121
        -17.37927928        0.00001616        0.00001585        0.00003201
        -17.31861862        0.00020482        0.00020162        0.00040644
        -17.25795796        0.00124388        0.00122890        0.00247278
        -17.19729730        0.00362800        0.00359716        0.00722517
        -17.13663664        0.00520681        0.00517982        0.01038664
        -17.07597598        0.00461733        0.00459909        0.00921642
        -17.01531532        0.00609959        0.00606137        0.01216097
        -16.95465465        0.01219641        0.01213409        0.02433050
        -16.89399399        0.02000164        0.01994603        0.03994767
        -16.83333333        0.02690097        0.02686915        0.05377012
        -16.77267267        0.03167093        0.03164595        0.06331688
        -16.71201201        0.03075004        0.03072383        0.06147387
        -16.65135135        0.02627319        0.02625081        0.05252400
        -16.59069069        0.02561538        0.02559171        0.05120710
        -16.53003003        0.02810221        0.02807145        0.05617367
        -16.46936937        0.02901577        0.02897782        0.05799359
        -16.40870871        0.02917827        0.02913722        0.05831549
        -16.34804805        0.03039063        0.03035421        0.06074484
        -16.28738739        0.03121641        0.03118739        0.06240380
        -16.22672673        0.03056492        0.03053899        0.06110392
        -16.16606607        0.02910560        0.02907757        0.05818316
        -16.10540541        0.02821965        0.02818694        0.05640659
        -16.04474474        0.02834212        0.02830138        0.05664351
        -15.98408408        0.02917420        0.02912135        0.05829555
        -15.92342342        0.03080022        0.03074178        0.06154201
        -15.86276276        0.03226487        0.03221008        0.06447494
        -15.80210210        0.03441277        0.03435993        0.06877270
        -15.74144144        0.03737073        0.03731473        0.07468546
        -15.68078078        0.04026319        0.04019473        0.08045792
        -15.62012012        0.04424806        0.04416450        0.08841256
        -15.55945946        0.04909543        0.04900143        0.09809686
        -15.49879880        0.05355572        0.05346266        0.10701838
        -15.43813814        0.05632029        0.05622983        0.11255011
        -15.37747748        0.05858700        0.05844856        0.11703556
        -15.31681682        0.06486257        0.06462604        0.12948861
        -15.25615616        0.07544823        0.07515569        0.15060393
        -15.19549550        0.08756280        0.08730643        0.17486924
        -15.13483483        0.09984777        0.09967917        0.19952694
        -15.07417417        0.11157356        0.11147934        0.22305290
        -15.01351351        0.11820920        0.11816518        0.23637438
        -14.95285285        0.11248831        0.11245844        0.22494675
        -14.89219219        0.10044444        0.10038038        0.20082482
        -14.83153153        0.09313331        0.09302750        0.18616081
        -14.77087087        0.09259464        0.09246248        0.18505712
        -14.71021021        0.09572848        0.09562192        0.19135040
        -14.64954955        0.08772810        0.08771735        0.17544545
        -14.58888889        0.05953373        0.05958634        0.11912006
        -14.52822823        0.02937004        0.02939691        0.05876695
        -14.46756757        0.01318684        0.01317769        0.02636453
        -14.40690691        0.00617307        0.00617134        0.01234441
        -14.34624625        0.00209830        0.00210500        0.00420330
        -14.28558559        0.00038685        0.00038966        0.00077651
        -14.22492492        0.00007510        0.00007090        0.00014600
        -14.16426426        0.00070313        0.00063914        0.00134227
        -14.10360360        0.00591663        0.00552357        0.01144020
        -14.04294294        0.02418359        0.02318549        0.04736907
        -13.98228228        0.04977676        0.04895612        0.09873288
        -13.92162162        0.06017884        0.06034035        0.12051919
        -13.86096096        0.06156502        0.06190728        0.12347230
        -13.80030030        0.06616876        0.06625719        0.13242595
        -13.73963964        0.08035013        0.08029905        0.16064918
        -13.67897898        0.12461023        0.12436354        0.24897377
        -13.61831832        0.18882462        0.18848335        0.37730797
        -13.55765766        0.23351402        0.23320611        0.46672013
        -13.49699700        0.23773543        0.23744552        0.47518094
        -13.43633634        0.22587227        0.22555773        0.45143000
        -13.37567568        0.21528941        0.21501317        0.43030259
        -13.31501502        0.20050522        0.20032287        0.40082809
        -13.25435435        0.18211393        0.18198860        0.36410253
        -13.19369369        0.16473029        0.16463140        0.32936169
        -13.13303303        0.15022454        0.15016567        0.30039021
        -13.07237237        0.13655322        0.13650978        0.27306300
        -13.01171171        0.12708317        0.12699952        0.25408269
        -12.95105105        0.12507538        0.12494413        0.25001951
        -12.89039039        0.12297303        0.12284136        0.24581439
        -12.82972973        0.12204571        0.12194645        0.24399216
        -12.76906907        0.12982982        0.12973385        0.25956367
        -12.70840841        0.13568332        0.13556327        0.27124659
        -12.64774775        0.12501138        0.12490673        0.24991811
        -12.58708709        0.10429210        0.10421861        0.20851071
        -12.52642643        0.08676696        0.08672329        0.17349024
        -12.46576577        0.07260542        0.07259997        0.14520539
        -12.40510511        0.06012694        0.06013475        0.12026169
        -12.34444444        0.05112986        0.05113244        0.10226230
        -12.28378378        0.04296643        0.04294105        0.08590748
        -12.22312312        0.03695871        0.03685559        0.07381430
        -12.16246246        0.03655501        0.03641905        0.07297406
        -12.10180180        0.03463607        0.03457692        0.06921299
        -12.04114114        0.02919824        0.02918181        0.05838005
        -11.98048048        0.02981549        0.02974646        0.05956196
        -11.91981982        0.04419787        0.04403104        0.08822891
        -11.85915916        0.07189092        0.07160814        0.14349905
        -11.79849850        0.10525431        0.10485783        0.21011214
        -11.73783784        0.13587002        0.13544059        0.27131062
        -11.67717718        0.15382382        0.15344485        0.30726867
        -11.61651652        0.15898340        0.15853734        0.31752074
        -11.55585586        0.16299563        0.16229252        0.32528814
        -11.49519520        0.17753452        0.17664623        0.35418074
        -11.43453453        0.19749365        0.19680854        0.39430219
        -11.37387387        0.20610204        0.20575868        0.41186071
        -11.31321321        0.19495849        0.19462200        0.38958049
        -11.25255255        0.17286127        0.17228673        0.34514800
        -11.19189189        0.16251367        0.16187717        0.32439084
        -11.13123123        0.16178962        0.16136279        0.32315241
        -11.07057057        0.15203296        0.15147685        0.30350982
        -11.00990991        0.15517047        0.15342705        0.30859752
        -10.94924925        0.18954846        0.18676769        0.37631616
        -10.88858859        0.20318841        0.20191500        0.40510341
        -10.82792793        0.15669386        0.15750602        0.31419987
        -10.76726727        0.11036073        0.11121534        0.22157607
        -10.70660661        0.11206605        0.11236744        0.22443349
        -10.64594595        0.13755423        0.13760051        0.27515473
        -10.58528529        0.15405155        0.15391007        0.30796161
        -10.52462462        0.15696209        0.15663464        0.31359673
        -10.46396396        0.16132791        0.16090196        0.32222988
        -10.40330330        0.16329586        0.16297357        0.32626944
        -10.34264264        0.15287726        0.15258177        0.30545903
        -10.28198198        0.14581776        0.14531407        0.29113183
        -10.22132132        0.15411963        0.15346324        0.30758287
        -10.16066066        0.16541708        0.16488344        0.33030052
        -10.10000000        0.17286708        0.17231645        0.34518352
        -10.03933934        0.19994201        0.19868319        0.39862520
         -9.97867868        0.24601799        0.24394487        0.48996285
         -9.91801802        0.26871554        0.26741429        0.53612982
         -9.85735736        0.25711249        0.25771609        0.51482858
         -9.79669670        0.24426943        0.24552111        0.48979053
         -9.73603604        0.24370592        0.24440805        0.48811397
         -9.67537538        0.25019011        0.25034208        0.50053219
         -9.61471471        0.26169068        0.26157534        0.52326602
         -9.55405405        0.27447345        0.27424911        0.54872256
         -9.49339339        0.28722132        0.28688514        0.57410646
         -9.43273273        0.30672454        0.30605870        0.61278324
         -9.37207207        0.33622537        0.33524613        0.67147150
         -9.31141141        0.35512692        0.35440791        0.70953483
         -9.25075075        0.34688656        0.34665063        0.69353719
         -9.19009009        0.33974235        0.33949909        0.67924144
         -9.12942943        0.35429585        0.35387443        0.70817027
         -9.06876877        0.36594212        0.36559139        0.73153351
         -9.00810811        0.35563808        0.35538527        0.71102335
         -8.94744745        0.33402417        0.33367387        0.66769804
         -8.88678679        0.32216118        0.32163136        0.64379254
         -8.82612613        0.32538971        0.32477109        0.65016080
         -8.76546547        0.33028160        0.32973700        0.66001860
         -8.70480480        0.31856406        0.31817050        0.63673457
         -8.64414414        0.29250744        0.29219039        0.58469783
         -8.58348348        0.26410084        0.26383234        0.52793318
         -8.52282282        0.23582257        0.23554212        0.47136469
         -8.46216216        0.21148292        0.21111097        0.42259388
         -8.40150150        0.19640840        0.19598513        0.39239353
         -8.34084084        0.19917024        0.19903977        0.39821001
         -8.28018018        0.25417389        0.25513076        0.50930466
         -8.21951952        0.43331536        0.43489613        0.86821149
         -8.15885886        0.62061115        0.61834533        1.23895648
         -8.09819820        0.53821743        0.52729445        1.06551188
         -8.03753754        0.35044122        0.32723885        0.67768006
         -7.97687688        0.36394209        0.33218558        0.69612767
         -7.91621622        0.50143754        0.48201773        0.98345527
         -7.85555556        0.58749469        0.58851069        1.17600538
         -7.79489489        0.59673490        0.60048137        1.19721627
         -7.73423423        0.59095206        0.58970643        1.18065850
         -7.67357357        0.58698929        0.59280560        1.17979489
         -7.61291291        0.54763475        0.56509593        1.11273067
         -7.55225225        0.57231331        0.57931475        1.15162806
         -7.49159159        0.98744853        0.95088802        1.93833655
         -7.43093093        1.92852026        1.84175983        3.77028010
         -7.37027027        2.94687305        2.86507948        5.81195253
         -7.30960961        3.48686823        3.49779527        6.98466351
         -7.24894895        3.18176527        3.28619111        6.46795639
         -7.18828829        2.14823277        2.22753168        4.37576445
         -7.12762763        1.21886845        1.22871393        2.44758238
         -7.06696697        0.79921364        0.79998746        1.59920110
         -7.00630631        0.56982942        0.58626099        1.15609041
         -6.94564565        0.53644729        0.54236671        1.07881400
         -6.88498498        0.84373435        0.83354244        1.67727679
         -6.82432432        1.45742612        1.42979376        2.88721988
         -6.76366366        2.25053207        2.20841780        4.45894987
         -6.70300300        2.50124522        2.48481562        4.98606084
         -6.64234234        1.95731226        1.97947865        3.93679091
         -6.58168168        1.35497138        1.38316751        2.73813889
         -6.52102102        1.00422336        1.02031805        2.02454141
         -6.46036036        0.88626836        0.87867419        1.76494255
         -6.39969970        1.18099530        1.14480185        2.32579715
         -6.33903904        1.73116969        1.69709421        3.42826390
         -6.27837838        2.03413251        2.03951978        4.07365230
         -6.21771772        1.95004597        1.96797792        3.91802388
         -6.15705706        1.81165264        1.81418501        3.62583765