#            ENERGY              s1              s2              total
        -30.30000000        0.00000000        0.00000000        0.00000000
        -30.23933934        0.00000166        0.00000159        0.00000325
        -30.17867868        0.00004670        0.00004514        0.00009184
        -30.11801802        0.00063023        0.00061381        0.00124404
        -30.05735736        0.00411329        0.00403744        0.00815072
        -29.99669670        0.01327428        0.01313128        0.02640556
        -29.93603604        0.02344405        0.02334250        0.04678654
        -29.87537538        0.03290840        0.03280235        0.06571075
        -29.81471471        0.05450928        0.05430282        0.10881211
        -29.75405405        0.08036160        0.08033579        0.16069738
        -29.69339339        0.09468885        0.09484986        0.18953871
        -29.63273273        0.11430129        0.11430554        0.22860682
        -29.57207207        0.14091778        0.14083591        0.28175368
        -29.51141141        0.17248760        0.17249892        0.34498653
        -29.45075075        0.20539692        0.20550568        0.41090260
        -29.39009009        0.19022572        0.19033933        0.38056504
        -29.32942943        0.13311850        0.13310658        0.26622508
        -29.26876877        0.09228934        0.09217110        0.18446044
        -29.20810811        0.06941176        0.06937833        0.13879010
        -29.14744745        0.04428598        0.04440880        0.08869478
        -29.08678679        0.02023602        0.02036525        0.04060127
        -29.02612613        0.00650206        0.00655394        0.01305600
        -28.96546547        0.00273860        0.00274742        0.00548603
        -28.90480480        0.00310548        0.00310556        0.00621103
        -28.84414414        0.00269874        0.00269994        0.00539868
        -28.78348348        0.00116828        0.00116968        0.00233796
        -28.72282282        0.00024307        0.00024355        0.00048661
        -28.66216216        0.00002423        0.00002430        0.00004853
        -28.60150150        0.00000116        0.00000116        0.00000232
        -28.54084084        0.00000000        0.00000000        0.00000000
        -28.48018018        0.00000000        0.00000000        0.00000000
        -28.41951952        0.00000000        0.00000000        0.00000000
        -28.35885886        0.00000000        0.00000000        0.00000000
        -28.29819820        0.00000000        0.00000000        0.00000000
        -28.23753754        0.00000000        0.00000000        0.00000000
        -28.17687688        0.00000000        0.00000000        0.00000000
        -28.11621622        0.00000000        0.00000000        0.00000000
        -28.05555556        0.00000000        0.00000000        0.00000000
        -27.99489489        0.00000000        0.00000000        0.00000000
        -27.93423423        0.00000000        0.00000000        0.00000000
        -27.87357357        0.00000000        0.00000000        0.00000000
        -27.81291291        0.00000000        0.00000000        0.00000000
        -27.75225225        0.00000000        0.00000000        0.00000000
        -27.69159159        0.00000000        0.00000000        0.00000000
        -27.63093093        0.00000000        0.00000000        0.00000000
        -27.57027027        0.00000000        0.00000000        0.00000000
        -27.50960961        0.00000000        0.00000000        0.00000000
        -27.44894895        0.00000000        0.00000000        0.00000000
        -27.38828829        0.00000000        0.00000000        0.00000000
        -27.32762763        0.00000000        0.00000000        0.00000000
        -27.26696697        0.00000000        0.00000000        0.00000000
        -27.20630631        0.00000000        0.00000000        0.00000000
        -27.14564565        0.00000000        0.00000000        0.00000000
        -27.08498498        0.00000000        0.00000000        0.00000000
        -27.02432432        0.00000000        0.00000000        0.00000000
        -26.96366366        0.00000000        0.00000000        0.00000000
        -26.90300300        0.00000000        0.00000000        0.00000000
        -26.84234234        0.00000000        0.00000000        0.00000000
        -26.78168168        0.00000000        0.00000000        0.00000000
        -26.72102102        0.00000000        0.00000000        0.00000000
        -26.66036036        0.00000000        0.00000000        0.00000000
        -26.59969970        0.00000000        0.00000000        0.00000000
        -26.53903904        0.00000000        0.00000000        0.00000000
        -26.47837838        0.00000000        0.00000000        0.00000000
        -26.41771772        0.00000000        0.00000000        0.00000000
        -26.35705706        0.00000000        0.00000000        0.00000000
        -26.29639640        0.00000000        0.00000000        0.00000000
        -26.23573574        0.00000000        0.00000000        0.00000000
        -26.17507508        0.00000000        0.00000000        0.00000000
        -26.11441441        0.00000000        0.00000000        0.00000000
        -26.05375375        0.00000000        0.00000000        0.00000000
        -25.99309309        0.00000000        0.00000000        0.00000000
        -25.93243243        0.00000000        0.00000000        0.00000000
        -25.87177177        0.00000000        0.00000000        0.00000000
        -25.81111111        0.00000000        0.00000000        0.00000000
        -25.75045045        0.00000000        0.00000000        0.00000000
        -25.68978979        0.00000000        0.00000000        0.00000000
        -25.62912913        0.00000000        0.00000000        0.00000000
        -25.56846847        0.00000000        0.00000000        0.00000000
        -25.50780781        0.00000000        0.00000000        0.00000000
        -25.44714715        0.00000000        0.00000000        0.00000000
        -25.38648649        0.00000000        0.00000000        0.00000000
        -25.32582583        0.00000000        0.00000000        0.00000000
        -25.26516517        0.00000000        0.00000000        0.00000000
        -25.20450450        0.00000000        0.00000000        0.00000000
        -25.14384384        0.00000000        0.00000000        0.00000000
        -25.08318318        0.00000000        0.00000000        0.00000000
        -25.02252252        0.00000000        0.00000000        0.00000000
        -24.96186186        0.00000000        0.00000000        0.00000000
        -24.90120120        0.00000000        0.00000000        0.00000000
        -24.84054054        0.00000000        0.00000000        0.00000000
        -24.77987988        0.00000000        0.00000000        0.00000000
        -24.71921922        0.00000000        0.00000000        0.00000000
        -24.65855856        0.00000000        0.00000000        0.00000000
        -24.59789790        0.00000000        0.00000000        0.00000000
        -24.53723724        0.00000000        0.00000000        0.00000000
        -24.47657658        0.00000000        0.00000000        0.00000000
        -24.41591592        0.00000000        0.00000000        0.00000000
        -24.35525526        0.00000000        0.00000000        0.00000000
        -24.29459459        0.00000000        0.00000000        0.00000000
        -24.23393393        0.00000000        0.00000000        0.00000000
        -24.17327327        0.00000000        0.00000000        0.00000000
        -24.11261261        0.00000000        0.00000000        0.00000000
        -24.05195195        0.00000000        0.00000000        0.00000000
        -23.99129129        0.00000000        0.00000000        0.00000000
        -23.93063063        0.00000000        0.00000000        0.00000000
        -23.86996997        0.00000000        0.00000000        0.00000000
        -23.80930931        0.00000000        0.00000000        0.00000000
        -23.74864865        0.00000000        0.00000000        0.00000000
        -23.68798799        0.00000000        0.00000000        0.00000000
        -23.62732733        0.00000000        0.00000000        0.00000000
        -23.56666667        0.00000000        0.00000000        0.00000000
        -23.50600601        0.00000000        0.00000000        0.00000000
        -23.44534535        0.00000000        0.00000000        0.00000000
        -23.38468468        0.00000000        0.00000000        0.00000000
        -23.32402402        0.00000000        0.00000000        0.00000000
        -23.26336336        0.00000000        0.00000000        0.00000000
        -23.20270270        0.00000000        0.00000000        0.00000000
        -23.14204204        0.00000000        0.00000000        0.00000000
        -23.08138138        0.00000000        0.00000000        0.00000000
        -23.02072072        0.00000000        0.00000000        0.00000000
        -22.96006006        0.00000000        0.00000000        0.00000000
        -22.89939940        0.00000000        0.00000000        0.00000000
        -22.83873874        0.00000000        0.00000000        0.00000000
        -22.77807808        0.00000000        0.00000000        0.00000000
        -22.71741742        0.00000000        0.00000000        0.00000000
        -22.65675676        0.00000000        0.00000000        0.00000000
        -22.59609610        0.00000000        0.00000000        0.00000000
        -22.53543544        0.00000000        0.00000000        0.00000000
        -22.47477477        0.00000000        0.00000000        0.00000000
        -22.41411411        0.00000000        0.00000000        0.00000000
        -22.35345345        0.00000000        0.00000000        0.00000000
        -22.29279279        0.00000000        0.00000000        0.00000000
        -22.23213213        0.00000000        0.00000000        0.00000000
        -22.17147147        0.00000000        0.00000000        0.00000000
        -22.11081081        0.00000000        0.00000000        0.00000000
        -22.05015015        0.00000000        0.00000000        0.00000000
        -21.98948949        0.00000000        0.00000000        0.00000000
        -21.92882883        0.00000000        0.00000000        0.00000000
        -21.86816817        0.00000000        0.00000000        0.00000000
        -21.80750751        0.00000000        0.00000000        0.00000000
        -21.74684685        0.00000000        0.00000000        0.00000000
        -21.68618619        0.00000000        0.00000000        0.00000000
        -21.62552553        0.00000000        0.00000000        0.00000000
        -21.56486486        0.00000000        0.00000000        0.00000000
        -21.50420420        0.00000000        0.00000000        0.00000000
        -21.44354354        0.00000000        0.00000000        0.00000000
        -21.38288288        0.00000000        0.00000000        0.00000000
        -21.32222222        0.00000000        0.00000000        0.00000000
        -21.26156156        0.00000000        0.00000000        0.00000000
        -21.20090090        0.00000000        0.00000000        0.00000000
        -21.14024024        0.00000000        0.00000000        0.00000000
        -21.07957958        0.00000000        0.00000000        0.00000000
        -21.01891892        0.00000000        0.00000000        0.00000000
        -20.95825826        0.00000000        0.00000000        0.00000000
        -20.89759760        0.00000000        0.00000000        0.00000000
        -20.83693694        0.00000007        0.00000007        0.00000014
        -20.77627628        0.00000195        0.00000192        0.00000387
        -20.71561562        0.00002602        0.00002574        0.00005176
        -20.65495495        0.00016663        0.00016524        0.00033187
        -20.59429429        0.00051339        0.00051026        0.00102365
        -20.53363363        0.00079450        0.00079140        0.00158590
        -20.47297297        0.00091615        0.00091171        0.00182786
        -20.41231231        0.00205328        0.00203325        0.00408652
        -20.35165165        0.00521058        0.00516120        0.01037178
        -20.29099099        0.00882695        0.00876832        0.01759527
        -20.23033033        0.01201123        0.01196948        0.02398072
        -20.16966967        0.01798266        0.01795236        0.03593502
        -20.10900901        0.02648687        0.02646211        0.05294897
        -20.04834835        0.03349641        0.03346695        0.06696336
        -19.98768769        0.03568343        0.03562833        0.07131175
        -19.92702703        0.03444900        0.03436887        0.06881788
        -19.86636637        0.03392197        0.03386575        0.06778772
        -19.80570571        0.03302941        0.03302202        0.06605142
        -19.74504505        0.03096098        0.03096061        0.06192159
        -19.68438438        0.02901115        0.02897684        0.05798798
        -19.62372372        0.02781352        0.02775149        0.05556501
        -19.56306306        0.02640302        0.02634828        0.05275130
        -19.50240240        0.02374378        0.02370936        0.04745314
        -19.44174174        0.02140288        0.02137335        0.04277624
        -19.38108108        0.02102241        0.02098884        0.04201125
        -19.32042042        0.02192376        0.02188941        0.04381318
        -19.25975976        0.02306993        0.02303841        0.04610834
        -19.19909910        0.02380820        0.02377897        0.04758717
        -19.13843844        0.02348891        0.02346022        0.04694913
        -19.07777778        0.02241263        0.02238746        0.04480009
        -19.01711712        0.02129618        0.02127549        0.04257167
        -18.95645646        0.02109427        0.02107399        0.04216826
        -18.89579580        0.02129875        0.02128028        0.04257904
        -18.83513514        0.02072175        0.02070341        0.04142516
        -18.77447447        0.02029610        0.02027121        0.04056731
        -18.71381381        0.02085428        0.02082508        0.04167936
        -18.65315315        0.02144385        0.02141880        0.04286265
        -18.59249249        0.02092602        0.02090447        0.04183049
        -18.53183183        0.02048994        0.02046472        0.04095466
        -18.47117117        0.02190355        0.02187316        0.04377671
        -18.41051051        0.02404691        0.02401634        0.04806324
        -18.34984985        0.02458261        0.02455029        0.04913290
        -18.28918919        0.02419447        0.02415200        0.04834647
        -18.22852853        0.02520488        0.02516243        0.05036731
        -18.16786787        0.02789012        0.02786477        0.05575489
        -18.10720721        0.03119759        0.03118569        0.06238328
        -18.04654655        0.03382230        0.03380283        0.06762513
        -17.98588589        0.03304262        0.03299081        0.06603342
        -17.92522523        0.02640406        0.02635595        0.05276000
        -17.86456456        0.01592399        0.01595333        0.03187732
        -17.80390390        0.00630053        0.00636073        0.01266126
        -17.74324324        0.00140042        0.00142694        0.00282736
        -17.68258258        0.00015938        0.00016394        0.00032332
        -17.62192192        0.00000888        0.00000922        0.00001811
        -17.56126126        0.00000024        0.00000025        0.00000049
        -17.50060060        0.00000000        0.00000000        0.00000000
        -17.43993994        0.00000077        0.00000075        0.00000152
        -17.37927928        0.00002035        0.00001995        0.00004029
        -17.31861862        0.00025785        0.00025372        0.00051157
        -17.25795796        0.00156617        0.00154662        0.00311279
        -17.19729730        0.00457351        0.00453261        0.00910612
        -17.13663664        0.00664683        0.00660886        0.01325569
        -17.07597598        0.00651264        0.00648046        0.01299310
        -17.01531532        0.01061466        0.01054311        0.02115778
        -16.95465465        0.02307135        0.02295344        0.04602479
        -16.89399399        0.03984891        0.03974079        0.07958969
        -16.83333333        0.05633120        0.05627034        0.11260154
        -16.77267267        0.06823698        0.06819184        0.13642882
        -16.71201201        0.06671789        0.06667190        0.13338979
        -16.65135135        0.05735992        0.05732208        0.11468200
        -16.59069069        0.05596849        0.05592962        0.11189810
        -16.53003003        0.06018028        0.06013143        0.12031171
        -16.46936937        0.06079058        0.06073299        0.12152357
        -16.40870871        0.05940213        0.05934379        0.11874592
        -16.34804805        0.06006553        0.06001506        0.12008060
        -16.28738739        0.06138249        0.06133908        0.12272157
        -16.22672673        0.06050354        0.06046080        0.12096434
        -16.16606607        0.05803193        0.05798404        0.11601598
        -16.10540541        0.05739106        0.05733204        0.11472310
        -16.04474474        0.05955076        0.05947236        0.11902311
        -15.98408408        0.06239829        0.06229812        0.12469640
        -15.92342342        0.06499461        0.06489272        0.12988733
        -15.86276276        0.06657449        0.06648598        0.13306047
        -15.80210210        0.07088060        0.07079189        0.14167249
        -15.74144144        0.07792131        0.07781913        0.15574044
        -15.68078078        0.08481603        0.08468816        0.16950420
        -15.62012012        0.09360936        0.09345324        0.18706261
        -15.55945946        0.10440920        0.10422775        0.20863695
        -15.49879880        0.11522781        0.11504718        0.23027500
        -15.43813814        0.12121217        0.12103409        0.24224626
        -15.37747748        0.12739374        0.12709587        0.25448961
        -15.31681682        0.14552576        0.14502013        0.29054589
        -15.25615616        0.17408215        0.17348069        0.34756284
        -15.19549550        0.20921215        0.20869756        0.41790970
        -15.13483483        0.24421811        0.24390988        0.48812799
        -15.07417417        0.26893084        0.26880041        0.53773125
        -15.01351351        0.27728804        0.27725121        0.55453925
        -14.95285285        0.26139033        0.26137650        0.52276684
        -14.89219219        0.23303090        0.23296052        0.46599142
        -14.83153153        0.21478932        0.21462708        0.42941640
        -14.77087087        0.21340814        0.21315185        0.42655999
        -14.71021021        0.22153373        0.22130273        0.44283646
        -14.64954955        0.20393101        0.20392044        0.40785145
        -14.58888889        0.13984274        0.13998261        0.27982535
        -14.52822823        0.07248591        0.07255900        0.14504490
        -14.46756757        0.03764801        0.03765484        0.07530285
        -14.40690691        0.02019210        0.02023525        0.04042735
        -14.34624625        0.00722856        0.00727372        0.01450228
        -14.28558559        0.00135189        0.00136626        0.00271815
        -14.22492492        0.00020133        0.00019433        0.00039565
        -14.16426426        0.00137383        0.00125070        0.00262453
        -14.10360360        0.01155322        0.01079713        0.02235034
        -14.04294294        0.04731533        0.04539935        0.09271468
        -13.98228228        0.09786752        0.09630207        0.19416959
        -13.92162162        0.11987213        0.12019129        0.24006341
        -13.86096096        0.12486454        0.12552308        0.25038762
        -13.80030030        0.13471433        0.13491285        0.26962718
        -13.73963964        0.16310362        0.16305403        0.32615765
        -13.67897898        0.25440191        0.25395794        0.50835985
        -13.61831832        0.39453537        0.39384930        0.78838467
        -13.55765766        0.50569311        0.50495737        1.01065048
        -13.49699700        0.52825114        0.52748534        1.05573648
        -13.43633634        0.49991528        0.49918339        0.99909866
        -13.37567568        0.46527589        0.46474875        0.93002464
        -13.31501502        0.42668253        0.42640698        0.85308951
        -13.25435435        0.38640832        0.38625134        0.77265966
        -13.19369369        0.34879316        0.34865661        0.69744977
        -13.13303303        0.31637422        0.31628688        0.63266110
        -13.07237237        0.28588765        0.28581467        0.57170232
        -13.01171171        0.26525474        0.26508187        0.53033661
        -12.95105105        0.26153169        0.26125296        0.52278465
        -12.89039039        0.25819728        0.25793209        0.51612937
        -12.82972973        0.25768723        0.25748189        0.51516912
        -12.76906907        0.28229390        0.28205205        0.56434595
        -12.70840841        0.30826718        0.30796017        0.61622735
        -12.64774775        0.29319719        0.29295421        0.58615140
        -12.58708709        0.25013191        0.24997629        0.50010821
        -12.52642643        0.21173964        0.21163829        0.42337793
        -12.46576577        0.17748215        0.17744808        0.35493023
        -12.40510511        0.14614513        0.14614368        0.29228881
        -12.34444444        0.12447178        0.12448102        0.24895279
        -12.28378378        0.10411724        0.10407421        0.20819145
        -12.22312312        0.08743090        0.08721187        0.17464277
        -12.16246246        0.08345520        0.08316939        0.16662459
        -12.10180180        0.07661378        0.07648856        0.15310234
        -12.04114114        0.06308589        0.06302969        0.12611558
        -11.98048048        0.06488042        0.06468087        0.12956129
        -11.91981982        0.10224948        0.10177765        0.20402714
        -11.85915916        0.17537741        0.17458142        0.34995883
        -11.79849850        0.25917325        0.25808594        0.51725919
        -11.73783784        0.32927477        0.32808982        0.65736459
        -11.67717718        0.36721252        0.36615607        0.73336859
        -11.61651652        0.37449062        0.37330846        0.74779908
        -11.55585586        0.38260583        0.38083649        0.76344232
        -11.49519520        0.42309428        0.42091510        0.84400938
        -11.43453453        0.48283052        0.48112465        0.96395518
        -11.37387387        0.51421409        0.51331635        1.02753044
        -11.31321321        0.48720779        0.48634064        0.97354842
        -11.25255255        0.42992582        0.42844217        0.85836799
        -11.19189189        0.40402186        0.40237712        0.80639899
        -11.13123123        0.40019829        0.39902421        0.79922250
        -11.07057057        0.37663912        0.37496762        0.75160674
        -11.00990991        0.38900886        0.38433852        0.77334738
        -10.94924925        0.47262578        0.46562136        0.93824714
        -10.88858859        0.49888789        0.49582263        0.99471052
        -10.82792793        0.38224275        0.38424232        0.76648507
        -10.76726727        0.27627409        0.27823320        0.55450730
        -10.70660661        0.29853917        0.29905173        0.59759090
        -10.64594595        0.38145277        0.38125278        0.76270556
        -10.58528529        0.43018402        0.42941346        0.85959747
        -10.52462462        0.44266668        0.44121671        0.88388339
        -10.46396396        0.47072068        0.46883433        0.93955501
        -10.40330330        0.48674746        0.48526572        0.97201318
        -10.34264264        0.45506683        0.45396796        0.90903479
        -10.28198198        0.43042762        0.42898780        0.85941542
        -10.22132132        0.44738646        0.44555868        0.89294514
        -10.16066066        0.47862991        0.47692219        0.95555210
        -10.10000000        0.52002922        0.51784142        1.03787064
        -10.03933934        0.62722329        0.62252930        1.24975259
         -9.97867868        0.76999656        0.76289994        1.53289650
         -9.91801802        0.82879313        0.82430008        1.65309321
         -9.85735736        0.80782574        0.80880757        1.61663331
         -9.79669670        0.80418454        0.80665338        1.61083792
         -9.73603604        0.81973138        0.82038114        1.64011252
         -9.67537538        0.83153384        0.83050287        1.66203671
         -9.61471471        0.85732641        0.85559337        1.71291978
         -9.55405405        0.90361386        0.90165468        1.80526854
         -9.49339339        0.96401185        0.96146837        1.92548022
         -9.43273273        1.05684510        1.05255699        2.10940209
         -9.37207207        1.19931400        1.19354083        2.39285484
         -9.31141141        1.31247932        1.30810027        2.62057959
         -9.25075075        1.31344946        1.31134883        2.62479828
         -9.19009009        1.29675122        1.29439334        2.59114456
         -9.12942943        1.35728838        1.35380304        2.71109142
         -9.06876877        1.40265538        1.39928595        2.80194133
         -9.00810811        1.36165188        1.35849448        2.72014636
         -8.94744745        1.31123033        1.30733589        2.61856622
         -8.88678679        1.32530071        1.32046346        2.64576417
         -8.82612613        1.37496231        1.36952105        2.74448336
         -8.76546547        1.41260802        1.40704596        2.81965397
         -8.70480480        1.40112894        1.39598719        2.79711613
         -8.64414414        1.35066925        1.34591951        2.69658876
         -8.58348348        1.28728590        1.28307221        2.57035811
         -8.52282282        1.18349995        1.18001449        2.36351444
         -8.46216216        1.06489748        1.06166819        2.12656566
         -8.40150150        1.01931121        1.01562115        2.03493237
         -8.34084084        1.12872286        1.12614139        2.25486424
         -8.28018018        1.62906242        1.63334299        3.26240541
         -8.21951952        3.03988188        3.04754609        6.08742797
         -8.15885886        4.51082986        4.48856421        8.99939408
         -8.09819820        3.98042526        3.89361852        7.87404378
         -8.03753754        2.63524412        2.46153260        5.09677672
         -7.97687688        2.72689465        2.50152557        5.22842022
         -7.91621622        3.66943814        3.54559706        7.21503520
         -7.85555556        4.19560910        4.21875774        8.41436684
         -7.79489489        4.19973146        4.23813011        8.43786157
         -7.73423423        4.21235213        4.21437383        8.42672595
         -7.67357357        4.43818401        4.47190902        8.91009303
         -7.61291291        4.74513615        4.81162619        9.55676234
         -7.55225225        6.50861121        6.39275457       12.90136578
         -7.49159159       14.17729729       13.45999522       27.63729251
         -7.43093093       30.37061758       28.79922879       59.16984637
         -7.37027027       48.87007148       47.18584264       96.05591411
         -7.30960961       57.84094823       57.82075856      115.66170678
         -7.24894895       49.50562888       51.33898015      100.84460903
         -7.18828829       33.40040474       34.64055796       68.04096269
         -7.12762763       27.19653382       26.98839126       54.18492507
         -7.06696697       28.49167136       28.43469300       56.92636436
         -7.00630631       24.67963305       25.18241716       49.86205021
         -6.94564565       23.22558016       23.22218991       46.44777007
         -6.88498498       31.23860920       30.70847708       61.94708628
         -6.82432432       41.31935399       40.32711582       81.64646981
         -6.76366366       53.35464101       52.05468177      105.40932278
         -6.70300300       61.98345929       61.82545255      123.80891184
         -6.64234234       58.35541193       59.42895150      117.78436344
         -6.58168168       49.71606157       50.70067466      100.41673623
         -6.52102102       43.90485993       44.29301956       88.19787949
         -6.46036036       47.62824625       47.04474000       94.67298625
         -6.39969970       63.40674053       62.17190685      125.57864737
         -6.33903904       74.98639381       74.53375764      149.52015145
         -6.27837838       73.40118843       74.16173593      147.56292436
         -6.21771772       69.20307734       69.35005606      138.55313341
         -6.15705706       71.86071240       70.89816620      142.75887860