#            ENERGY              s1              s2              total
        -30.30000000        0.00000000        0.00000000        0.00000000
        -30.23933934        0.00000004        0.00000004        0.00000008
        -30.17867868        0.00000110        0.00000106        0.00000217
        -30.11801802        0.00001488        0.00001446        0.00002933
        -30.05735736        0.00009711        0.00009511        0.00019222
        -29.99669670        0.00031425        0.00031016        0.00062441
        -29.93603604        0.00056401        0.00056023        0.00112424
        -29.87537538        0.00082816        0.00082354        0.00165170
        -29.81471471        0.00140157        0.00139403        0.00279560
        -29.75405405        0.00203938        0.00203710        0.00407648
        -29.69339339        0.00246739        0.00247144        0.00493883
        -29.63273273        0.00316817        0.00316954        0.00633771
        -29.57207207        0.00388761        0.00388719        0.00777480
        -29.51141141        0.00472053        0.00472102        0.00944156
        -29.45075075        0.00590070        0.00590182        0.01180251
        -29.39009009        0.00544094        0.00544257        0.01088351
        -29.32942943        0.00318103        0.00318101        0.00636204
        -29.26876877        0.00153737        0.00153552        0.00307289
        -29.20810811        0.00088768        0.00088691        0.00177459
        -29.14744745        0.00046636        0.00046760        0.00093396
        -29.08678679        0.00016545        0.00016671        0.00033217
        -29.02612613        0.00003623        0.00003667        0.00007290
        -28.96546547       -0.00000169       -0.00000161       -0.00000330
        -28.90480480       -0.00001388       -0.00001387       -0.00002775
        -28.84414414       -0.00001313       -0.00001312       -0.00002625
        -28.78348348       -0.00000572       -0.00000572       -0.00001144
        -28.72282282       -0.00000119       -0.00000119       -0.00000238
        -28.66216216       -0.00000012       -0.00000012       -0.00000024
        -28.60150150       -0.00000001       -0.00000001       -0.00000001
        -28.54084084        0.00000000        0.00000000        0.00000000
        -28.48018018        0.00000000        0.00000000        0.00000000
        -28.41951952        0.00000000        0.00000000        0.00000000
        -28.35885886        0.00000000        0.00000000        0.00000000
        -28.29819820        0.00000000        0.00000000        0.00000000
        -28.23753754        0.00000000        0.00000000        0.00000000
        -28.17687688        0.00000000        0.00000000        0.00000000
        -28.11621622        0.00000000        0.00000000        0.00000000
        -28.05555556        0.00000000        0.00000000        0.00000000
        -27.99489489        0.00000000        0.00000000        0.00000000
        -27.93423423        0.00000000        0.00000000        0.00000000
        -27.87357357        0.00000000        0.00000000        0.00000000
        -27.81291291        0.00000000        0.00000000        0.00000000
        -27.75225225        0.00000000        0.00000000        0.00000000
        -27.69159159        0.00000000        0.00000000        0.00000000
        -27.63093093        0.00000000        0.00000000        0.00000000
        -27.57027027        0.00000000        0.00000000        0.00000000
        -27.50960961        0.00000000        0.00000000        0.00000000
        -27.44894895        0.00000000        0.00000000        0.00000000
        -27.38828829        0.00000000        0.00000000        0.00000000
        -27.32762763        0.00000000        0.00000000        0.00000000
        -27.26696697        0.00000000        0.00000000        0.00000000
        -27.20630631        0.00000000        0.00000000        0.00000000
        -27.14564565        0.00000000        0.00000000        0.00000000
        -27.08498498        0.00000000        0.00000000        0.00000000
        -27.02432432        0.00000000        0.00000000        0.00000000
        -26.96366366        0.00000000        0.00000000        0.00000000
        -26.90300300        0.00000000        0.00000000        0.00000000
        -26.84234234        0.00000000        0.00000000        0.00000000
        -26.78168168        0.00000000        0.00000000        0.00000000
        -26.72102102        0.00000000        0.00000000        0.00000000
        -26.66036036        0.00000000        0.00000000        0.00000000
        -26.59969970        0.00000000        0.00000000        0.00000000
        -26.53903904        0.00000000        0.00000000        0.00000000
        -26.47837838        0.00000000        0.00000000        0.00000000
        -26.41771772        0.00000000        0.00000000        0.00000000
        -26.35705706        0.00000000        0.00000000        0.00000000
        -26.29639640        0.00000000        0.00000000        0.00000000
        -26.23573574        0.00000000        0.00000000        0.00000000
        -26.17507508        0.00000000        0.00000000        0.00000000
        -26.11441441        0.00000000        0.00000000        0.00000000
        -26.05375375        0.00000000        0.00000000        0.00000000
        -25.99309309        0.00000000        0.00000000        0.00000000
        -25.93243243        0.00000000        0.00000000        0.00000000
        -25.87177177        0.00000000        0.00000000        0.00000000
        -25.81111111        0.00000000        0.00000000        0.00000000
        -25.75045045        0.00000000        0.00000000        0.00000000
        -25.68978979        0.00000000        0.00000000        0.00000000
        -25.62912913        0.00000000        0.00000000        0.00000000
        -25.56846847        0.00000000        0.00000000        0.00000000
        -25.50780781        0.00000000        0.00000000        0.00000000
        -25.44714715        0.00000000        0.00000000        0.00000000
        -25.38648649        0.00000000        0.00000000        0.00000000
        -25.32582583        0.00000000        0.00000000        0.00000000
        -25.26516517        0.00000000        0.00000000        0.00000000
        -25.20450450        0.00000000        0.00000000        0.00000000
        -25.14384384        0.00000000        0.00000000        0.00000000
        -25.08318318        0.00000000        0.00000000        0.00000000
        -25.02252252        0.00000000        0.00000000        0.00000000
        -24.96186186        0.00000000        0.00000000        0.00000000
        -24.90120120        0.00000000        0.00000000        0.00000000
        -24.84054054        0.00000000        0.00000000        0.00000000
        -24.77987988        0.00000000        0.00000000        0.00000000
        -24.71921922        0.00000000        0.00000000        0.00000000
        -24.65855856        0.00000000        0.00000000        0.00000000
        -24.59789790        0.00000000        0.00000000        0.00000000
        -24.53723724        0.00000000        0.00000000        0.00000000
        -24.47657658        0.00000000        0.00000000        0.00000000
        -24.41591592        0.00000000        0.00000000        0.00000000
        -24.35525526        0.00000000        0.00000000        0.00000000
        -24.29459459        0.00000000        0.00000000        0.00000000
        -24.23393393        0.00000000        0.00000000        0.00000000
        -24.17327327        0.00000000        0.00000000        0.00000000
        -24.11261261        0.00000000        0.00000000        0.00000000
        -24.05195195        0.00000000        0.00000000        0.00000000
        -23.99129129        0.00000000        0.00000000        0.00000000
        -23.93063063        0.00000000        0.00000000        0.00000000
        -23.86996997        0.00000000        0.00000000        0.00000000
        -23.80930931        0.00000000        0.00000000        0.00000000
        -23.74864865        0.00000000        0.00000000        0.00000000
        -23.68798799        0.00000000        0.00000000        0.00000000
        -23.62732733        0.00000000        0.00000000        0.00000000
        -23.56666667        0.00000000        0.00000000        0.00000000
        -23.50600601        0.00000000        0.00000000        0.00000000
        -23.44534535        0.00000000        0.00000000        0.00000000
        -23.38468468        0.00000000        0.00000000        0.00000000
        -23.32402402        0.00000000        0.00000000        0.00000000
        -23.26336336        0.00000000        0.00000000        0.00000000
        -23.20270270        0.00000000        0.00000000        0.00000000
        -23.14204204        0.00000000        0.00000000        0.00000000
        -23.08138138        0.00000000        0.00000000        0.00000000
        -23.02072072        0.00000000        0.00000000        0.00000000
        -22.96006006        0.00000000        0.00000000        0.00000000
        -22.89939940        0.00000000        0.00000000        0.00000000
        -22.83873874        0.00000000        0.00000000        0.00000000
        -22.77807808        0.00000000        0.00000000        0.00000000
        -22.71741742        0.00000000        0.00000000        0.00000000
        -22.65675676        0.00000000        0.00000000        0.00000000
        -22.59609610        0.00000000        0.00000000        0.00000000
        -22.53543544        0.00000000        0.00000000        0.00000000
        -22.47477477        0.00000000        0.00000000        0.00000000
        -22.41411411        0.00000000        0.00000000        0.00000000
        -22.35345345        0.00000000        0.00000000        0.00000000
        -22.29279279        0.00000000        0.00000000        0.00000000
        -22.23213213        0.00000000        0.00000000        0.00000000
        -22.17147147        0.00000000        0.00000000        0.00000000
        -22.11081081        0.00000000        0.00000000        0.00000000
        -22.05015015        0.00000000        0.00000000        0.00000000
        -21.98948949        0.00000000        0.00000000        0.00000000
        -21.92882883        0.00000000        0.00000000        0.00000000
        -21.86816817        0.00000000        0.00000000        0.00000000
        -21.80750751        0.00000000        0.00000000        0.00000000
        -21.74684685        0.00000000        0.00000000        0.00000000
        -21.68618619        0.00000000        0.00000000        0.00000000
        -21.62552553        0.00000000        0.00000000        0.00000000
        -21.56486486        0.00000000        0.00000000        0.00000000
        -21.50420420        0.00000000        0.00000000        0.00000000
        -21.44354354        0.00000000        0.00000000        0.00000000
        -21.38288288        0.00000000        0.00000000        0.00000000
        -21.32222222        0.00000000        0.00000000        0.00000000
        -21.26156156        0.00000000        0.00000000        0.00000000
        -21.20090090        0.00000000        0.00000000        0.00000000
        -21.14024024        0.00000000        0.00000000        0.00000000
        -21.07957958        0.00000000        0.00000000        0.00000000
        -21.01891892        0.00000000        0.00000000        0.00000000
        -20.95825826        0.00000000        0.00000000        0.00000000
        -20.89759760        0.00000000        0.00000000        0.00000000
        -20.83693694        0.00000001        0.00000001        0.00000002
        -20.77627628        0.00000024        0.00000024        0.00000048
        -20.71561562        0.00000326        0.00000320        0.00000646
        -20.65495495        0.00002091        0.00002062        0.00004153
        -20.59429429        0.00006555        0.00006477        0.00013032
        -20.53363363        0.00011123        0.00011004        0.00022128
        -20.47297297        0.00016531        0.00016338        0.00032869
        -20.41231231        0.00036448        0.00036022        0.00072470
        -20.35165165        0.00077887        0.00077152        0.00155039
        -20.29099099        0.00121657        0.00120925        0.00242582
        -20.23033033        0.00156186        0.00155803        0.00311989
        -20.16966967        0.00215211        0.00215033        0.00430243
        -20.10900901        0.00291586        0.00291406        0.00582992
        -20.04834835        0.00341309        0.00341021        0.00682330
        -19.98768769        0.00353857        0.00353383        0.00707240
        -19.92702703        0.00337918        0.00337391        0.00675308
        -19.86636637        0.00311393        0.00311159        0.00622552
        -19.80570571        0.00274041        0.00274087        0.00548128
        -19.74504505        0.00234806        0.00234789        0.00469595
        -19.68438438        0.00210636        0.00210394        0.00421030
        -19.62372372        0.00197808        0.00197427        0.00395236
        -19.56306306        0.00184657        0.00184305        0.00368962
        -19.50240240        0.00166535        0.00166272        0.00332806
        -19.44174174        0.00149687        0.00149448        0.00299135
        -19.38108108        0.00143813        0.00143558        0.00287372
        -19.32042042        0.00144905        0.00144641        0.00289546
        -19.25975976        0.00145710        0.00145436        0.00291146
        -19.19909910        0.00147452        0.00147165        0.00294617
        -19.13843844        0.00146322        0.00146049        0.00292371
        -19.07777778        0.00138908        0.00138677        0.00277584
        -19.01711712        0.00132819        0.00132622        0.00265441
        -18.95645646        0.00132367        0.00132179        0.00264546
        -18.89579580        0.00132150        0.00131965        0.00264115
        -18.83513514        0.00130440        0.00130241        0.00260681
        -18.77447447        0.00132541        0.00132296        0.00264837
        -18.71381381        0.00138828        0.00138563        0.00277391
        -18.65315315        0.00142157        0.00141941        0.00284098
        -18.59249249        0.00140439        0.00140258        0.00280697
        -18.53183183        0.00144164        0.00143949        0.00288113
        -18.47117117        0.00159180        0.00158932        0.00318112
        -18.41051051        0.00171496        0.00171266        0.00342762
        -18.34984985        0.00170820        0.00170588        0.00341408
        -18.28918919        0.00167608        0.00167311        0.00334919
        -18.22852853        0.00176111        0.00175795        0.00351906
        -18.16786787        0.00204243        0.00204011        0.00408254
        -18.10720721        0.00245523        0.00245407        0.00490930
        -18.04654655        0.00273668        0.00273550        0.00547218
        -17.98588589        0.00255926        0.00255604        0.00511530
        -17.92522523        0.00186424        0.00186067        0.00372490
        -17.86456456        0.00102358        0.00102430        0.00204788
        -17.80390390        0.00038243        0.00038539        0.00076782
        -17.74324324        0.00008288        0.00008428        0.00016715
        -17.68258258        0.00000934        0.00000958        0.00001892
        -17.62192192        0.00000052        0.00000054        0.00000105
        -17.56126126        0.00000001        0.00000001        0.00000003
        -17.50060060        0.00000000        0.00000000        0.00000000
        -17.43993994        0.00000011        0.00000011        0.00000022
        -17.37927928        0.00000290        0.00000283        0.00000573
        -17.31861862        0.00003671        0.00003606        0.00007276
        -17.25795796        0.00022290        0.00021974        0.00044264
        -17.19729730        0.00064953        0.00064262        0.00129215
        -17.13663664        0.00092352        0.00091688        0.00184041
        -17.07597598        0.00075942        0.00075562        0.00151504
        -17.01531532        0.00085663        0.00085128        0.00170790
        -16.95465465        0.00178209        0.00177278        0.00355488
        -16.89399399        0.00327179        0.00326193        0.00653371
        -16.83333333        0.00484091        0.00483361        0.00967451
        -16.77267267        0.00605988        0.00605313        0.01211301
        -16.71201201        0.00602888        0.00602265        0.01205153
        -16.65135135        0.00509960        0.00509506        0.01019465
        -16.59069069        0.00505853        0.00505369        0.01011221
        -16.53003003        0.00584418        0.00583785        0.01168203
        -16.46936937        0.00615339        0.00614641        0.01229980
        -16.40870871        0.00608406        0.00607752        0.01216158
        -16.34804805        0.00636339        0.00635760        0.01272099
        -16.28738739        0.00689000        0.00688465        0.01377465
        -16.22672673        0.00693779        0.00693296        0.01387074
        -16.16606607        0.00630072        0.00629609        0.01259680
        -16.10540541        0.00564661        0.00564110        0.01128771
        -16.04474474        0.00542630        0.00541903        0.01084533
        -15.98408408        0.00535356        0.00534435        0.01069791
        -15.92342342        0.00541339        0.00540290        0.01081630
        -15.86276276        0.00583948        0.00582829        0.01166777
        -15.80210210        0.00681633        0.00680455        0.01362088
        -15.74144144        0.00780545        0.00779402        0.01559946
        -15.68078078        0.00829556        0.00828409        0.01657965
        -15.62012012        0.00893162        0.00891862        0.01785024
        -15.55945946        0.00999675        0.00998128        0.01997804
        -15.49879880        0.01106998        0.01105436        0.02212434
        -15.43813814        0.01163908        0.01162626        0.02326534
        -15.37747748        0.01154334        0.01152827        0.02307161
        -15.31681682        0.01161905        0.01159523        0.02321428
        -15.25615616        0.01228887        0.01225933        0.02454820
        -15.19549550        0.01336824        0.01334054        0.02670877
        -15.13483483        0.01522688        0.01520635        0.03043323
        -15.07417417        0.01748721        0.01747538        0.03496258
        -15.01351351        0.01862966        0.01862708        0.03725674
        -14.95285285        0.01743944        0.01744100        0.03488044
        -14.89219219        0.01547504        0.01547074        0.03094578
        -14.83153153        0.01461608        0.01460415        0.02922024
        -14.77087087        0.01444088        0.01442486        0.02886574
        -14.71021021        0.01451458        0.01450200        0.02901658
        -14.64954955        0.01321507        0.01321598        0.02643105
        -14.58888889        0.00910244        0.00911197        0.01821441
        -14.52822823        0.00460840        0.00461324        0.00922164
        -14.46756757        0.00206690        0.00206580        0.00413271
        -14.40690691        0.00091517        0.00091480        0.00182997
        -14.34624625        0.00029631        0.00029715        0.00059346
        -14.28558559        0.00005350        0.00005384        0.00010733
        -14.22492492        0.00001787        0.00001639        0.00003426
        -14.16426426        0.00022981        0.00020834        0.00043815
        -14.10360360        0.00193832        0.00180487        0.00374320
        -14.04294294        0.00794344        0.00759549        0.01553893
        -13.98228228        0.01649625        0.01618075        0.03267700
        -13.92162162        0.02049654        0.02049480        0.04099133
        -13.86096096        0.02175707        0.02183557        0.04359264
        -13.80030030        0.02311920        0.02314457        0.04626377
        -13.73963964        0.02664353        0.02663822        0.05328175
        -13.67897898        0.04130185        0.04123565        0.08253750
        -13.61831832        0.06637662        0.06628103        0.13265765
        -13.55765766        0.08613998        0.08605305        0.17219303
        -13.49699700        0.08626428        0.08618039        0.17244467
        -13.43633634        0.07632573        0.07623067        0.15255639
        -13.37567568        0.06834393        0.06825804        0.13660197
        -13.31501502        0.06048690        0.06042915        0.12091605
        -13.25435435        0.05202398        0.05197656        0.10400054
        -13.19369369        0.04623465        0.04618153        0.09241618
        -13.13303303        0.04318386        0.04313699        0.08632086
        -13.07237237        0.03943957        0.03940513        0.07884470
        -13.01171171        0.03525531        0.03521925        0.07047456
        -12.95105105        0.03357056        0.03352805        0.06709861
        -12.89039039        0.03294347        0.03290717        0.06585064
        -12.82972973        0.03274959        0.03272128        0.06547087
        -12.76906907        0.03609202        0.03605450        0.07214652
        -12.70840841        0.04024263        0.04019101        0.08043364
        -12.64774775        0.03856257        0.03851752        0.07708008
        -12.58708709        0.03189931        0.03186929        0.06376860
        -12.52642643        0.02538164        0.02536170        0.05074334
        -12.46576577        0.02008473        0.02007402        0.04015875
        -12.40510511        0.01533142        0.01532596        0.03065738
        -12.34444444        0.01140777        0.01140239        0.02281017
        -12.28378378        0.00877775        0.00876265        0.01754040
        -12.22312312        0.00854639        0.00850457        0.01705096
        -12.16246246        0.01070877        0.01065012        0.02135889
        -12.10180180        0.01238305        0.01234057        0.02472362
        -12.04114114        0.01282032        0.01278507        0.02560539
        -11.98048048        0.01439106        0.01433728        0.02872834
        -11.91981982        0.01956888        0.01948212        0.03905100
        -11.85915916        0.02865947        0.02852575        0.05718522
        -11.79849850        0.03945581        0.03927212        0.07872794
        -11.73783784        0.04961174        0.04941479        0.09902653
        -11.67717718        0.05618408        0.05599955        0.11218363
        -11.61651652        0.06040892        0.06015784        0.12056676
        -11.55585586        0.06723448        0.06682706        0.13406154
        -11.49519520        0.07894788        0.07844758        0.15739546
        -11.43453453        0.09120188        0.09080685        0.18200873
        -11.37387387        0.09882462        0.09859596        0.19742058
        -11.31321321        0.09821250        0.09802824        0.19624073
        -11.25255255        0.08767150        0.08744669        0.17511819
        -11.19189189        0.07788323        0.07762370        0.15550693
        -11.13123123        0.07449735        0.07424477        0.14874212
        -11.07057057        0.06969580        0.06936020        0.13905599
        -11.00990991        0.06937358        0.06858579        0.13795938
        -10.94924925        0.08195342        0.08074172        0.16269514
        -10.88858859        0.08889374        0.08825800        0.17715174
        -10.82792793        0.07153324        0.07178542        0.14331866
        -10.76726727        0.05245267        0.05274781        0.10520048
        -10.70660661        0.05839706        0.05837136        0.11676843
        -10.64594595        0.08390338        0.08371020        0.16761358
        -10.58528529        0.10672548        0.10646637        0.21319184
        -10.52462462        0.11499054        0.11460624        0.22959678
        -10.46396396        0.11507856        0.11456394        0.22964249
        -10.40330330        0.11451255        0.11401070        0.22852325
        -10.34264264        0.11443796        0.11401167        0.22844964
        -10.28198198        0.11520038        0.11479859        0.22999897
        -10.22132132        0.11632696        0.11589991        0.23222687
        -10.16066066        0.11903775        0.11861900        0.23765675
        -10.10000000        0.12958361        0.12904472        0.25862833
        -10.03933934        0.15728804        0.15625714        0.31354518
         -9.97867868        0.18899783        0.18747400        0.37647183
         -9.91801802        0.20054830        0.19943921        0.39998750
         -9.85735736        0.19704825        0.19698240        0.39403066
         -9.79669670        0.19827505        0.19856702        0.39684206
         -9.73603604        0.20377093        0.20373516        0.40750609
         -9.67537538        0.21130821        0.21087932        0.42218753
         -9.61471471        0.22572290        0.22507906        0.45080196
         -9.55405405        0.24499309        0.24427820        0.48927128
         -9.49339339        0.26615904        0.26521107        0.53137011
         -9.43273273        0.29869169        0.29691345        0.59560515
         -9.37207207        0.35084070        0.34823375        0.69907445
         -9.31141141        0.39315716        0.39115334        0.78431050
         -9.25075075        0.39876329        0.39794701        0.79671030
         -9.19009009        0.40573915        0.40493816        0.81067731
         -9.12942943        0.44000894        0.43875626        0.87876520
         -9.06876877        0.46850803        0.46722864        0.93573667
         -9.00810811        0.48007674        0.47870656        0.95878330
         -8.94744745        0.49619301        0.49430479        0.99049780
         -8.88678679        0.52689792        0.52439687        1.05129479
         -8.82612613        0.56726470        0.56441672        1.13168142
         -8.76546547        0.60721219        0.60455091        1.21176310
         -8.70480480        0.61852196        0.61645705        1.23497901
         -8.64414414        0.59628093        0.59460553        1.19088646
         -8.58348348        0.56125578        0.55971039        1.12096617
         -8.52282282        0.51334346        0.51188415        1.02522761
         -8.46216216        0.46364952        0.46208992        0.92573944
         -8.40150150        0.43500306        0.43309589        0.86809895
         -8.34084084        0.42193260        0.42021681        0.84214941
         -8.28018018        0.42451519        0.42425992        0.84877510
         -8.21951952        0.52058775        0.52111260        1.04170034
         -8.15885886        0.66374199        0.65956706        1.32330905
         -8.09819820        0.62275132        0.60710172        1.22985304
         -8.03753754        0.53198059        0.49727049        1.02925108
         -7.97687688        0.71503442        0.66417696        1.37921138
         -7.91621622        1.14459566        1.10726318        2.25185883
         -7.85555556        1.57274020        1.56144408        3.13418428
         -7.79489489        1.81813252        1.80724736        3.62537988
         -7.73423423        1.96919348        1.94721549        3.91640897
         -7.67357357        2.20656366        2.19265821        4.39922186
         -7.61291291        2.64610836        2.63039974        5.27650809
         -7.55225225        4.42099551        4.26527434        8.68626985
         -7.49159159       10.97259095       10.35339959       21.32599054
         -7.43093093       24.39072343       23.07771009       47.46843352
         -7.37027027       39.55005132       38.12531083       77.67536214
         -7.30960961       46.42716011       46.37497709       92.80213720
         -7.24894895       38.91260641       40.42016086       79.33276728
         -7.18828829       26.17706875       27.18119199       53.35826074
         -7.12762763       22.84894348       22.61991013       45.46885361
         -7.06696697       25.27253425       25.21711917       50.48965342
         -7.00630631       22.17782585       22.64600696       44.82383280
         -6.94564565       20.82615669       20.84950286       41.67565954
         -6.88498498       27.79105314       27.33094590       55.12199904
         -6.82432432       36.50934587       35.58065721       72.09000309
         -6.76366366       47.30909276       46.06629649       93.37538925
         -6.70300300       55.77352960       55.59672794      111.37025754
         -6.64234234       53.42456196       54.40677089      107.83133285
         -6.58168168       45.96107326       46.87034280       92.83141607
         -6.52102102       40.86717820       41.20847023       82.07564843
         -6.46036036       45.25330270       44.67314189       89.92644459
         -6.39969970       61.05106450       59.88697605      120.93804056
         -6.33903904       72.16216615       71.77152288      143.93368903
         -6.27837838       70.49773966       71.23447779      141.73221745
         -6.21771772       66.69997595       66.79914438      133.49912033
         -6.15705706       69.66203531       68.68956914      138.35160445