Siesta Version:                                        siesta-3.1
Architecture  : x86_64-unknown-linux-gnu--Intel
Compiler flags: mpif90 -O3 -xSSSE3 -axSSE4.2,SSE4.1 -ip
PARALLEL version
NetCDF support

* Running on   64 nodes in parallel
>> Start of run:  27-APR-2012  10:57:03

                           ***********************       
                           *  WELCOME TO SIESTA  *       
                           ***********************       

reinit: Reading from standard input
************************** Dump of input data file ****************************
SystemName      optical
SystemLabel     optical
NumberOfAtoms   1282
NumberOfSpecies 4
MD.TypeOfRun    CG
MD.NumCGsteps   0
MD.ConstantVolume  .true.
SolutionMethod  diagon
XC.functional   GGA
XC.authors      PBE
PAO.BasisSize   DZP
DM.NumberPulay  7
DM.MixingWeight 0.1
DirectPhi       .true.
SaveMemory      .true.
MeshCutoff      500 Ry
MaxSCFiterations 200
UseSaveData     .true.
WriteMullikenPop 1
OpticalCalculation      .true.
%block Optical.Mesh
 1 1 1
%endblock Optical.Mesh
Optical.PolarizationType  polarized
%block Optical.Vector
 0.0 0.0 1.0
%endblock Optical.Vector
Optical.Broaden         0.05 eV
Optical.EnergyMinimum   0.001 eV
Optical.EnergyMaximum   100.0 eV
%block ChemicalSpeciesLabel
 1   1   H
 2   6   C
 3   9   F
 4  47   Ag
%endblock ChemicalSpeciesLabel
LatticeConstant 1.0 Ang
%block LatticeParameters
  22.534   24.472   23.649   90.0 90.0 90.0
%endblock LatticeParameters
AtomicCoordinatesFormat Ang
%block AtomicCoordinatesAndAtomicSpecies < struct.coor
%endblock AtomicCoordinatesAndAtomicSpecies
************************** End of input data file *****************************

reinit: -----------------------------------------------------------------------
reinit: System Name: optical
reinit: -----------------------------------------------------------------------
reinit: System Label: optical                                                     
reinit: -----------------------------------------------------------------------

initatom: Reading input for the pseudopotentials and atomic orbitals ----------
 Species number:            1  Label: H Atomic number:           1
 Species number:            2  Label: C Atomic number:           6
 Species number:            3  Label: F Atomic number:           9
 Species number:            4  Label: Ag Atomic number:          47
Ground state valence configuration:   1s01
Reading pseudopotential information in formatted form from H.psf

Valence configuration for pseudopotential generation:
1s( 1.00) rc: 1.33
2p( 0.00) rc: 1.33
3d( 0.00) rc: 0.37
4f( 0.00) rc: 1.33
Ground state valence configuration:   2s02  2p02
Reading pseudopotential information in formatted form from C.psf

Valence configuration for pseudopotential generation:
2s( 2.00) rc: 1.56
2p( 2.00) rc: 1.56
3d( 0.00) rc: 1.56
4f( 0.00) rc: 1.56
Ground state valence configuration:   2s02  2p05
Reading pseudopotential information in formatted form from F.psf

Valence configuration for pseudopotential generation:
2s( 2.00) rc: 1.41
2p( 5.00) rc: 1.41
3d( 0.00) rc: 1.41
4f( 0.00) rc: 1.41
Ground state valence configuration:   5s01  4d10
Reading pseudopotential information in formatted form from Ag.psf

Valence configuration for pseudopotential generation:
5s( 1.00) rc: 2.52
5p( 0.00) rc: 2.72
4d(10.00) rc: 2.52
4f( 0.00) rc: 2.52
For H, standard SIESTA heuristics set lmxkb to 2
 (one more than the basis l, including polarization orbitals).
Use PS.lmax or PS.KBprojectors blocks to override.
For C, standard SIESTA heuristics set lmxkb to 3
 (one more than the basis l, including polarization orbitals).
Use PS.lmax or PS.KBprojectors blocks to override.
For F, standard SIESTA heuristics set lmxkb to 3
 (one more than the basis l, including polarization orbitals).
Use PS.lmax or PS.KBprojectors blocks to override.
For Ag, standard SIESTA heuristics set lmxkb to 3
 (one more than the basis l, including polarization orbitals).
Use PS.lmax or PS.KBprojectors blocks to override.

<basis_specs>
===============================================================================
H                    Z=   1    Mass=  1.0100        Charge= 0.17977+309
Lmxo=0 Lmxkb= 2    BasisType=split      Semic=F
L=0  Nsemic=0  Cnfigmx=1
          n=1  nzeta=2  polorb=1
            splnorm:   0.15000    
               vcte:    0.0000    
               rinn:    0.0000    
                rcs:    0.0000      0.0000    
            lambdas:    1.0000      1.0000    
-------------------------------------------------------------------------------
L=0  Nkbl=1  erefs: 0.17977+309
L=1  Nkbl=1  erefs: 0.17977+309
L=2  Nkbl=1  erefs: 0.17977+309
===============================================================================
</basis_specs>

atom: Called for H                     (Z =   1)

read_vps: Pseudopotential generation method:
read_vps: ATM 3.2.2 Troullier-Martins                       
Total valence charge:    1.00000

xc_check: Exchange-correlation functional:
xc_check: GGA Perdew, Burke & Ernzerhof 1996
V l=0 = -2*Zval/r beyond r=  1.2656
V l=1 = -2*Zval/r beyond r=  1.2498
V l=2 = -2*Zval/r beyond r=  0.3563
All V_l potentials equal beyond r=  1.2656
This should be close to max(r_c) in ps generation
All pots = -2*Zval/r beyond r=  1.2656

VLOCAL1: 99.0% of the norm of Vloc inside     27.100 Ry
VLOCAL1: 99.9% of the norm of Vloc inside     61.762 Ry
atom: Maximum radius for 4*pi*r*r*local-pseudopot. charge    1.48935
atom: Maximum radius for r*vlocal+2*Zval:    1.24984
GHOST: No ghost state for L =  0
GHOST: No ghost state for L =  1
GHOST: No ghost state for L =  2

KBgen: Kleinman-Bylander projectors: 
   l= 0   rc=  1.398961   el= -0.477209   Ekb= -2.001853   kbcos= -0.352188
   l= 1   rc=  1.470814   el=  0.001006   Ekb= -0.423408   kbcos= -0.024395
   l= 2   rc=  1.489346   el=  0.001895   Ekb= -0.481957   kbcos= -0.001574

KBgen: Total number of  Kleinman-Bylander projectors:    9
atom: -------------------------------------------------------------------------

atom: SANKEY-TYPE ORBITALS:
atom: Selected multiple-zeta basis: split     

SPLIT: Orbitals with angular momentum L= 0

SPLIT: Basis orbitals for state 1s

SPLIT: PAO cut-off radius determined from an
SPLIT: energy shift=  0.020000 Ry

   izeta = 1
                 lambda =    1.000000
                     rc =    4.708991
                 energy =   -0.457764
                kinetic =    0.979534
    potential(screened) =   -1.437298
       potential(ionic) =   -1.965615

   izeta = 2
                 rmatch =    3.759707
              splitnorm =    0.150000
                 energy =   -0.339003
                kinetic =    1.582546
    potential(screened) =   -1.921548
       potential(ionic) =   -2.471878

POLgen: Perturbative polarization orbital with L=  1

POLgen: Polarization orbital for state 1s

   izeta = 1
                     rc =    4.708991
                 energy =    0.764951
                kinetic =    1.476882
    potential(screened) =   -0.711931
       potential(ionic) =   -1.204335
atom: Total number of Sankey-type orbitals:  5

atm_pop: Valence configuration (for local Pseudopot. screening):
 1s( 1.00)                                                            
Vna: chval, zval:    1.00000   1.00000

Vna:  Cut-off radius for the neutral-atom potential:   4.708991

atom: _________________________________________________________________________

<basis_specs>
===============================================================================
C                    Z=   6    Mass=  12.010        Charge= 0.17977+309
Lmxo=1 Lmxkb= 3    BasisType=split      Semic=F
L=0  Nsemic=0  Cnfigmx=2
          n=1  nzeta=2  polorb=0
            splnorm:   0.15000    
               vcte:    0.0000    
               rinn:    0.0000    
                rcs:    0.0000      0.0000    
            lambdas:    1.0000      1.0000    
L=1  Nsemic=0  Cnfigmx=2
          n=1  nzeta=2  polorb=1
            splnorm:   0.15000    
               vcte:    0.0000    
               rinn:    0.0000    
                rcs:    0.0000      0.0000    
            lambdas:    1.0000      1.0000    
-------------------------------------------------------------------------------
L=0  Nkbl=1  erefs: 0.17977+309
L=1  Nkbl=1  erefs: 0.17977+309
L=2  Nkbl=1  erefs: 0.17977+309
L=3  Nkbl=1  erefs: 0.17977+309
===============================================================================
</basis_specs>

atom: Called for C                     (Z =   6)

read_vps: Pseudopotential generation method:
read_vps: ATM 3.2.2 Troullier-Martins                       
Total valence charge:    4.00000

xc_check: Exchange-correlation functional:
xc_check: GGA Perdew, Burke & Ernzerhof 1996
V l=0 = -2*Zval/r beyond r=  1.5227
V l=1 = -2*Zval/r beyond r=  1.5227
V l=2 = -2*Zval/r beyond r=  1.5227
V l=3 = -2*Zval/r beyond r=  1.5227
All V_l potentials equal beyond r=  1.4851
This should be close to max(r_c) in ps generation
All pots = -2*Zval/r beyond r=  1.5227

VLOCAL1: 99.0% of the norm of Vloc inside     19.682 Ry
VLOCAL1: 99.9% of the norm of Vloc inside     44.856 Ry
atom: Maximum radius for 4*pi*r*r*local-pseudopot. charge    1.79142
atom: Maximum radius for r*vlocal+2*Zval:    1.54183
GHOST: No ghost state for L =  0
GHOST: No ghost state for L =  1
GHOST: No ghost state for L =  2
GHOST: No ghost state for L =  3

KBgen: Kleinman-Bylander projectors: 
   l= 0   rc=  1.661951   el= -1.010689   Ekb=  5.289847   kbcos=  0.316429
   l= 1   rc=  1.661951   el= -0.388490   Ekb= -4.102504   kbcos= -0.351025
   l= 2   rc=  1.747182   el=  0.001971   Ekb= -1.006005   kbcos= -0.008530
   l= 3   rc=  1.791422   el=  0.003065   Ekb= -0.421399   kbcos= -0.001072

KBgen: Total number of  Kleinman-Bylander projectors:   16
atom: -------------------------------------------------------------------------

atom: SANKEY-TYPE ORBITALS:
atom: Selected multiple-zeta basis: split     

SPLIT: Orbitals with angular momentum L= 0

SPLIT: Basis orbitals for state 2s

SPLIT: PAO cut-off radius determined from an
SPLIT: energy shift=  0.020000 Ry

   izeta = 1
                 lambda =    1.000000
                     rc =    4.088342
                 energy =   -0.990050
                kinetic =    0.909804
    potential(screened) =   -1.899854
       potential(ionic) =   -5.513925

   izeta = 2
                 rmatch =    3.347176
              splitnorm =    0.150000
                 energy =   -0.836186
                kinetic =    1.375045
    potential(screened) =   -2.211230
       potential(ionic) =   -6.057915

SPLIT: Orbitals with angular momentum L= 1

SPLIT: Basis orbitals for state 2p

SPLIT: PAO cut-off radius determined from an
SPLIT: energy shift=  0.020000 Ry

   izeta = 1
                 lambda =    1.000000
                     rc =    4.870301
                 energy =   -0.368677
                kinetic =    2.532104
    potential(screened) =   -2.900781
       potential(ionic) =   -6.401132

   izeta = 2
                 rmatch =    3.475094
              splitnorm =    0.150000
                 energy =   -0.205777
                kinetic =    3.787472
    potential(screened) =   -3.993249
       potential(ionic) =   -7.860448

POLgen: Perturbative polarization orbital with L=  2

POLgen: Polarization orbital for state 2p

   izeta = 1
                     rc =    4.870301
                 energy =    1.296521
                kinetic =    2.641128
    potential(screened) =   -1.344607
       potential(ionic) =   -4.300412
atom: Total number of Sankey-type orbitals: 13

atm_pop: Valence configuration (for local Pseudopot. screening):
 2s( 2.00)                                                            
 2p( 2.00)                                                            
Vna: chval, zval:    4.00000   4.00000

Vna:  Cut-off radius for the neutral-atom potential:   4.870301

atom: _________________________________________________________________________

<basis_specs>
===============================================================================
F                    Z=   9    Mass=  19.000        Charge= 0.17977+309
Lmxo=1 Lmxkb= 3    BasisType=split      Semic=F
L=0  Nsemic=0  Cnfigmx=2
          n=1  nzeta=2  polorb=0
            splnorm:   0.15000    
               vcte:    0.0000    
               rinn:    0.0000    
                rcs:    0.0000      0.0000    
            lambdas:    1.0000      1.0000    
L=1  Nsemic=0  Cnfigmx=2
          n=1  nzeta=2  polorb=1
            splnorm:   0.15000    
               vcte:    0.0000    
               rinn:    0.0000    
                rcs:    0.0000      0.0000    
            lambdas:    1.0000      1.0000    
-------------------------------------------------------------------------------
L=0  Nkbl=1  erefs: 0.17977+309
L=1  Nkbl=1  erefs: 0.17977+309
L=2  Nkbl=1  erefs: 0.17977+309
L=3  Nkbl=1  erefs: 0.17977+309
===============================================================================
</basis_specs>

atom: Called for F                     (Z =   9)

read_vps: Pseudopotential generation method:
read_vps: ATM 3.2.2 Troullier-Martins                       
Total valence charge:    7.00000

xc_check: Exchange-correlation functional:
xc_check: GGA Perdew, Burke & Ernzerhof 1996
V l=0 = -2*Zval/r beyond r=  1.3199
V l=1 = -2*Zval/r beyond r=  1.3199
V l=2 = -2*Zval/r beyond r=  1.3199
V l=3 = -2*Zval/r beyond r=  1.3199
All V_l potentials equal beyond r=  1.3199
This should be close to max(r_c) in ps generation
All pots = -2*Zval/r beyond r=  1.3199

VLOCAL1: 99.0% of the norm of Vloc inside     24.916 Ry
VLOCAL1: 99.9% of the norm of Vloc inside     56.784 Ry
atom: Maximum radius for 4*pi*r*r*local-pseudopot. charge    1.61221
atom: Maximum radius for r*vlocal+2*Zval:    1.38760
GHOST: No ghost state for L =  0
GHOST: No ghost state for L =  1
GHOST: No ghost state for L =  2
GHOST: No ghost state for L =  3

KBgen: Kleinman-Bylander projectors: 
   l= 0   rc=  1.495695   el= -2.197581   Ekb=  5.601452   kbcos=  0.238748
   l= 1   rc=  1.458760   el= -0.816694   Ekb= -9.171639   kbcos= -0.518972
   l= 2   rc=  1.552860   el=  0.001997   Ekb= -1.845583   kbcos= -0.004774
   l= 3   rc=  1.592177   el=  0.003102   Ekb= -0.701684   kbcos= -0.000616

KBgen: Total number of  Kleinman-Bylander projectors:   16
atom: -------------------------------------------------------------------------

atom: SANKEY-TYPE ORBITALS:
atom: Selected multiple-zeta basis: split     

SPLIT: Orbitals with angular momentum L= 0

SPLIT: Basis orbitals for state 2s

SPLIT: PAO cut-off radius determined from an
SPLIT: energy shift=  0.020000 Ry

   izeta = 1
                 lambda =    1.000000
                     rc =    3.012240
                 energy =   -2.180114
                kinetic =    2.050927
    potential(screened) =   -4.231041
       potential(ionic) =  -15.028689

   izeta = 2
                 rmatch =    2.203728
              splitnorm =    0.150000
                 energy =   -1.860487
                kinetic =    3.102500
    potential(screened) =   -4.962987
       potential(ionic) =  -16.601125

SPLIT: Orbitals with angular momentum L= 1

SPLIT: Basis orbitals for state 2p

SPLIT: PAO cut-off radius determined from an
SPLIT: energy shift=  0.020000 Ry

   izeta = 1
                 lambda =    1.000000
                     rc =    3.588372
                 energy =   -0.798309
                kinetic =    6.054328
    potential(screened) =   -6.852638
       potential(ionic) =  -17.288549

   izeta = 2
                 rmatch =    2.259523
              splitnorm =    0.150000
                 energy =   -0.439465
                kinetic =    8.943362
    potential(screened) =   -9.382827
       potential(ionic) =  -20.998650

POLgen: Perturbative polarization orbital with L=  2

POLgen: Polarization orbital for state 2p

   izeta = 1
                     rc =    3.588372
                 energy =    3.121679
                kinetic =    6.160101
    potential(screened) =   -3.038422
       potential(ionic) =  -11.529161
atom: Total number of Sankey-type orbitals: 13

atm_pop: Valence configuration (for local Pseudopot. screening):
 2s( 2.00)                                                            
 2p( 5.00)                                                            
Vna: chval, zval:    7.00000   7.00000

Vna:  Cut-off radius for the neutral-atom potential:   3.588372

atom: _________________________________________________________________________

<basis_specs>
===============================================================================
Ag                   Z=  47    Mass=  107.87        Charge= 0.17977+309
Lmxo=2 Lmxkb= 3    BasisType=split      Semic=F
L=0  Nsemic=0  Cnfigmx=5
          n=1  nzeta=2  polorb=1
            splnorm:   0.15000    
               vcte:    0.0000    
               rinn:    0.0000    
                rcs:    0.0000      0.0000    
            lambdas:    1.0000      1.0000    
L=1  Nsemic=0  Cnfigmx=5
L=2  Nsemic=0  Cnfigmx=4
          n=1  nzeta=2  polorb=0
            splnorm:   0.15000    
               vcte:    0.0000    
               rinn:    0.0000    
                rcs:    0.0000      0.0000    
            lambdas:    1.0000      1.0000    
-------------------------------------------------------------------------------
L=0  Nkbl=1  erefs: 0.17977+309
L=1  Nkbl=1  erefs: 0.17977+309
L=2  Nkbl=1  erefs: 0.17977+309
L=3  Nkbl=1  erefs: 0.17977+309
===============================================================================
</basis_specs>

atom: Called for Ag                    (Z =  47)

read_vps: Pseudopotential generation method:
read_vps: ATM 3.2.2 Troullier-Martins                       
Total valence charge:   11.00000

xc_check: Exchange-correlation functional:
xc_check: GGA Perdew, Burke & Ernzerhof 1996
V l=0 = -2*Zval/r beyond r=  2.4592
V l=1 = -2*Zval/r beyond r=  2.6507
V l=2 = -2*Zval/r beyond r=  2.4592
V l=3 = -2*Zval/r beyond r=  2.4592
All V_l potentials equal beyond r=  2.6507
This should be close to max(r_c) in ps generation
All pots = -2*Zval/r beyond r=  2.6507

VLOCAL1: 99.0% of the norm of Vloc inside      6.178 Ry
VLOCAL1: 99.9% of the norm of Vloc inside     14.079 Ry
atom: Maximum radius for 4*pi*r*r*local-pseudopot. charge    3.19739
atom: Maximum radius for r*vlocal+2*Zval:    2.82168
GHOST: No ghost state for L =  0
GHOST: No ghost state for L =  1
GHOST: No ghost state for L =  2
GHOST: No ghost state for L =  3

KBgen: Kleinman-Bylander projectors: 
   l= 0   rc=  2.966357   el= -0.323666   Ekb=  3.565490   kbcos=  0.247453
   l= 1   rc=  3.003670   el= -0.054265   Ekb=  1.619308   kbcos=  0.223076
   l= 2   rc=  2.786631   el= -0.547066   Ekb= -7.840816   kbcos= -0.714112
   l= 3   rc=  3.079709   el=  0.002953   Ekb= -2.732950   kbcos= -0.012571

KBgen: Total number of  Kleinman-Bylander projectors:   16
atom: -------------------------------------------------------------------------

atom: SANKEY-TYPE ORBITALS:
atom: Selected multiple-zeta basis: split     

SPLIT: Orbitals with angular momentum L= 0

SPLIT: Basis orbitals for state 5s

SPLIT: PAO cut-off radius determined from an
SPLIT: energy shift=  0.020000 Ry

   izeta = 1
                 lambda =    1.000000
                     rc =    6.684855
                 energy =   -0.305483
                kinetic =    0.327133
    potential(screened) =   -0.632616
       potential(ionic) =   -8.088030

   izeta = 2
                 rmatch =    6.279837
              splitnorm =    0.150000
                 energy =   -0.253539
                kinetic =    0.499634
    potential(screened) =   -0.753173
       potential(ionic) =   -8.691029

SPLIT: Orbitals with angular momentum L= 2

SPLIT: Basis orbitals for state 4d

SPLIT: PAO cut-off radius determined from an
SPLIT: energy shift=  0.020000 Ry

   izeta = 1
                 lambda =    1.000000
                     rc =    3.954440
                 energy =   -0.527442
                kinetic =    6.210364
    potential(screened) =   -6.737807
       potential(ionic) =  -18.733043

   izeta = 2
                 rmatch =    2.490121
              splitnorm =    0.150000
                 energy =   -0.148928
                kinetic =    8.576261
    potential(screened) =   -8.725189
       potential(ionic) =  -21.658221

POLgen: Perturbative polarization orbital with L=  1

POLgen: Polarization orbital for state 5s

   izeta = 1
                     rc =    6.684855
                 energy =   -0.001728
                kinetic =    0.597115
    potential(screened) =   -0.598843
       potential(ionic) =   -7.554613
atom: Total number of Sankey-type orbitals: 15

atm_pop: Valence configuration (for local Pseudopot. screening):
 5s( 1.00)                                                            
 5p( 0.00)                                                            
 4d(10.00)                                                            
Vna: chval, zval:   11.00000  11.00000

Vna:  Cut-off radius for the neutral-atom potential:   6.684855

atom: _________________________________________________________________________

prinput: Basis input ----------------------------------------------------------

PAO.BasisType split     

%block ChemicalSpeciesLabel
    1    1 H                       # Species index, atomic number, species label
    2    6 C                       # Species index, atomic number, species label
    3    9 F                       # Species index, atomic number, species label
    4   47 Ag                      # Species index, atomic number, species label
%endblock ChemicalSpeciesLabel

%block PAO.Basis                 # Define Basis set
H                     1                    # Species label, number of l-shells
 n=1   0   2 P   1                   # n, l, Nzeta, Polarization, NzetaPol
   4.709      3.760   
   1.000      1.000   
C                     2                    # Species label, number of l-shells
 n=2   0   2                         # n, l, Nzeta 
   4.088      3.347   
   1.000      1.000   
 n=2   1   2 P   1                   # n, l, Nzeta, Polarization, NzetaPol
   4.870      3.475   
   1.000      1.000   
F                     2                    # Species label, number of l-shells
 n=2   0   2                         # n, l, Nzeta 
   3.012      2.204   
   1.000      1.000   
 n=2   1   2 P   1                   # n, l, Nzeta, Polarization, NzetaPol
   3.588      2.260   
   1.000      1.000   
Ag                    2                    # Species label, number of l-shells
 n=5   0   2 P   1                   # n, l, Nzeta, Polarization, NzetaPol
   6.685      6.280   
   1.000      1.000   
 n=4   2   2                         # n, l, Nzeta 
   3.954      2.490   
   1.000      1.000   
%endblock PAO.Basis

prinput: ----------------------------------------------------------------------

Dumping basis to NetCDF file H.ion.nc
Dumping basis to NetCDF file C.ion.nc
Dumping basis to NetCDF file F.ion.nc
Dumping basis to NetCDF file Ag.ion.nc
coor:   Atomic-coordinates input format  =     Cartesian coordinates
coor:                                          (in Angstroms)

siesta: WARNING: XV file not found

siesta: Atomic coordinates (Bohr) and species
siesta:      4.38606  45.28164  35.66671  2        1
siesta:      4.02701  46.09422  33.80721  1        2
siesta:      6.16051  44.24418  35.66671  1        3
siesta:      4.45787  46.81798  37.03109  1        4
siesta:      2.21665  43.49773  36.42260  2        5
siesta:      0.04346  44.73928  35.87080  3        6
siesta:      2.27523  41.49084  34.79365  3        7
siesta:      2.16563  42.52074  39.17782  2        8
siesta:      4.14795  42.22973  39.72206  1        9
siesta:      1.41541  44.07599  40.31354  1       10
siesta:      0.70109  40.11701  39.93749  2       11
siesta:     -1.14517  39.73340  38.21217  3       12
siesta:      2.20531  38.04776  39.66915  3       13
siesta:     -0.52345  39.94883  42.56799  2       14
siesta:     -2.18830  41.17526  42.57366  1       15
siesta:     -1.18486  38.00619  42.77586  1       16
siesta:      1.04880  40.63858  44.95849  2       17
siesta:      3.56591  40.87101  44.35189  3       18
siesta:      0.37228  43.02719  45.64446  3       19
siesta:      0.76723  39.02097  47.36789  2       20
siesta:      1.44375  40.14347  48.95337  1       21
siesta:     -1.23021  38.71672  47.68915  1       22
siesta:      2.08626  36.39614  47.50206  2       23
siesta:      0.57637  34.89381  48.94582  3       24
siesta:      1.98421  35.35301  45.14180  3       25
siesta:      4.79046  36.12969  48.60567  2       26
siesta:      5.20809  37.92115  49.56187  1       27
siesta:      4.68274  34.68783  50.06075  1       28
siesta:      7.08081  35.50230  46.90680  2       29
siesta:      7.40773  37.41470  45.23439  3       30
siesta:      9.16329  35.67048  48.40724  3       31
siesta:      7.24521  32.97195  45.41392  2       32
siesta:      5.47454  31.97418  45.73328  1       33
siesta:      7.33403  33.44061  43.40892  1       34
siesta:      9.33525  30.99530  45.88257  2       35
siesta:      9.08014  30.17516  48.31843  3       36
siesta:      8.71731  28.92794  44.46716  3       37
siesta:     12.16984  31.60568  45.41959  2       38
siesta:     12.54212  33.49352  46.13390  1       39
siesta:     13.23565  30.30933  46.61767  1       40
siesta:     13.37360  31.50931  42.75318  2       41
siesta:     11.52733  31.80032  41.01463  3       42
siesta:     14.77011  33.66548  42.52641  3       43
siesta:     15.06112  29.25486  41.96705  2       44
siesta:     16.67495  29.23219  43.26530  1       45
siesta:     13.94240  27.50686  42.31287  1       46
siesta:     16.11559  29.02054  39.25908  2       47
siesta:     16.99809  26.60735  39.05310  3       48
siesta:     14.13327  28.99030  37.61501  3       49
siesta:     18.13760  30.84034  38.18193  2       50
siesta:     17.60848  31.27120  36.21284  1       51
siesta:     17.98642  32.63369  39.22128  1       52
siesta:     20.97030  30.16004  38.15548  2       53
siesta:     22.19862  32.18961  37.12557  3       54
siesta:     21.76776  30.06555  40.58377  3       55
siesta:     21.89816  27.74875  36.81944  2       56
siesta:     21.56556  26.20484  38.15170  1       57
siesta:     20.69629  27.44072  35.17538  1       58
siesta:     24.66472  27.52954  35.90481  2       59
siesta:     24.98030  25.04833  35.21317  3       60
siesta:     24.84424  28.83156  33.69761  3       61
siesta:     26.88892  28.33268  37.63769  2       62
siesta:     26.57145  30.27531  38.16492  1       63
siesta:     26.75664  27.18750  39.35923  1       64
siesta:     29.67249  28.17961  36.74952  2       65
siesta:     29.97674  29.84257  34.81633  3       66
siesta:     31.13703  29.12447  38.64491  3       67
siesta:     30.81578  25.65682  35.84623  2       68
siesta:     29.89359  24.16016  36.91959  1       69
siesta:     30.25075  25.44328  33.85257  1       70
siesta:     33.69572  25.12203  35.96717  2       71
siesta:     34.08122  22.70318  35.19616  3       72
siesta:     34.83711  26.49019  34.10201  3       73
siesta:     35.29632  25.43572  38.38413  2       74
siesta:     37.16337  24.68928  37.91359  1       75
siesta:     35.48718  27.45584  38.72050  1       76
siesta:     34.49129  24.26220  40.93904  2       77
siesta:     35.33411  25.85902  42.77775  3       78
siesta:     31.92316  24.48330  41.16014  3       79
siesta:     35.24908  21.53722  41.65336  2       80
siesta:     33.51053  20.40527  41.65903  1       81
siesta:     36.44716  20.83802  40.13591  1       82
siesta:     36.61157  21.04778  44.19315  2       83
siesta:     37.64714  18.69885  44.06654  3       84
siesta:     38.64302  22.63515  44.24984  3       85
siesta:     35.19049  21.27455  46.72539  2       86
siesta:     33.65982  22.62003  46.43059  1       87
siesta:     34.32500  19.43962  47.06743  1       88
siesta:     36.54354  22.03799  49.21227  2       89
siesta:     35.61568  20.45818  50.99806  3       90
siesta:     39.00774  21.33313  49.08566  3       91
siesta:     36.33378  24.74408  50.28374  2       92
siesta:     35.11302  25.83068  49.03085  1       93
siesta:     35.35112  24.59291  52.07331  1       94
siesta:     38.68082  26.38815  50.79208  2       95
siesta:     37.87580  28.33079  52.27174  3       96
siesta:     40.32110  25.10313  52.27740  3       97
siesta:     40.18315  27.57678  48.57543  2       98
siesta:     40.06410  26.27098  46.98806  1       99
siesta:     39.19105  29.29833  48.05009  1      100
siesta:     42.96861  28.28732  48.98739  2      101
siesta:     43.52986  30.10335  47.24506  3      102
siesta:     43.20672  29.50053  51.22294  3      103
siesta:     45.07566  26.26720  48.83243  2      104
siesta:     46.83499  27.18372  49.25951  1      105
siesta:     44.71094  24.89715  50.31587  1      106
siesta:     45.52352  24.77621  46.38902  2      107
siesta:     44.28575  25.94784  44.45771  3      108
siesta:     48.02741  25.02565  45.80131  3      109
siesta:     44.86967  21.95485  46.20949  2      110
siesta:     42.87223  21.73753  46.68570  1      111
siesta:     45.06999  21.39738  44.24607  1      112
siesta:     46.32665  20.00465  47.79686  2      113
siesta:     46.05075  20.58668  50.27429  3      114
siesta:     44.96227  17.83335  47.61545  3      115
siesta:     49.10833  19.37159  47.23750  2      116
siesta:     49.25762  17.32313  47.09010  1      117
siesta:     49.52029  20.16905  45.36856  1      118
siesta:     51.22483  20.31078  49.06676  2      119
siesta:     50.51996  22.55956  50.08910  3      120
siesta:     51.36467  18.74042  51.12278  3      121
siesta:     53.96871  20.67172  48.11434  2      122
siesta:     54.02540  22.46129  47.04664  1      123
siesta:     55.19136  20.94195  49.77730  1      124
siesta:     55.30097  18.66483  46.46460  2      125
siesta:     53.77218  18.09980  44.49362  3      126
siesta:     57.31920  19.77032  45.33644  3      127
siesta:     56.18725  16.11370  47.60033  2      128
siesta:     54.88712  15.66773  49.13290  1      129
siesta:     55.92080  14.67751  46.13390  1      130
siesta:     58.90279  15.83024  48.64535  2      131
siesta:     60.54496  16.20252  46.71027  3      132
siesta:     59.31664  17.81068  50.20815  3      133
siesta:     59.75883  13.40194  49.99650  2      134
siesta:     59.00861  11.79568  48.91558  1      135
siesta:     61.81486  13.34714  49.82265  1      136
siesta:     59.21837  12.92195  52.84432  2      137
siesta:     59.48671  10.36515  53.19014  3      138
siesta:     61.19314  13.96130  54.12178  3      139
siesta:     56.72393  13.78934  54.09154  2      140
siesta:     56.64267  15.84914  53.98194  1      141
siesta:     55.18191  13.02778  52.93125  1      142
siesta:     56.13812  13.03534  56.85432  2      143
siesta:     58.40012  12.85203  58.09965  3      144
siesta:     54.91357  15.04412  57.95792  3      145
siesta:     54.55264  10.62971  57.39667  2      146
siesta:     52.78385  10.83002  56.34788  1      147
siesta:     55.60521   9.05557  56.58220  1      148
siesta:     53.86666   9.98343  60.17646  2      149
siesta:     52.20748  11.73142  61.01172  3      150
siesta:     52.48527   7.79512  60.10654  3      151
siesta:     55.87733   9.65839  62.29863  2      152
siesta:     56.75417  11.50655  62.60476  1      153
siesta:     54.84365   9.13494  64.01450  1      154
siesta:     57.99761   7.69497  62.04729  2      155
siesta:     57.65368   5.94319  63.90678  3      156
siesta:     57.68202   6.38161  59.86277  3      157
siesta:     60.79440   8.56991  62.16823  2      158
siesta:     61.07030   9.88894  60.63567  1      159
siesta:     61.01361   9.63194  63.92946  1      160
siesta:     62.96948   6.63105  62.05296  2      161
siesta:     63.89545   6.45909  64.45102  3      162
siesta:     62.01139   4.32181  61.48415  3      163
siesta:     65.30140   7.12616  60.36544  2      164
siesta:     66.15745   8.85337  61.04763  1      165
siesta:     66.63555   5.60115  60.74527  1      166
siesta:     65.04818   7.33214  57.46848  2      167
siesta:     64.09576   9.67162  56.94125  3      168
siesta:     67.43868   7.39450  56.49527  3      169
siesta:     63.47404   5.41218  55.88111  2      170
siesta:     61.57108   5.26289  56.71070  1      171
siesta:     63.22648   6.27011  54.00650  1      172
siesta:     64.40945   2.67207  55.45592  2      173
siesta:     62.81830   1.62139  53.71171  3      174
siesta:     66.65067   2.77979  54.22949  3      175
siesta:     64.69291   0.82581  57.71415  2      176
siesta:     66.11209   1.57603  59.01050  1      177
siesta:     62.90901   0.84093  58.72326  1      178
siesta:     65.40345  -2.00500  57.28896  2      179
siesta:     67.91300  -2.28279  57.82186  3      180
siesta:     64.25071  -3.27301  59.19380  3      181
siesta:     64.77606  -3.39395  54.79452  2      182
siesta:     62.84476  -2.89317  54.26351  1      183
siesta:     66.06107  -2.68530  53.34699  1      184
siesta:     64.87432  -6.29279  54.65279  2      185
siesta:     62.40823  -7.10726  54.78507  3      186
siesta:     65.61888  -6.83703  52.23772  3      187
siesta:     66.52972  -7.86126  56.48205  2      188
siesta:     68.42134  -7.03545  56.40457  1      189
siesta:     65.79840  -7.60804  58.39445  1      190
siesta:     66.76216 -10.73365  56.10788  2      191
siesta:     67.51238 -11.77111  58.35855  3      192
siesta:     64.42835 -11.72198  55.74883  3      193
siesta:     68.52150 -11.83914  54.02162  2      194
siesta:     67.66734 -13.59658  53.41880  1      195
siesta:     68.47047 -10.56546  52.38512  1      196
siesta:     71.31451 -12.38905  54.61122  2      197
siesta:     72.62787 -12.04323  52.43047  3      198
siesta:     72.16867 -10.51633  56.19481  3      199
siesta:     72.16111 -14.93640  55.79230  2      200
siesta:     74.08485 -14.68507  56.53307  1      201
siesta:     70.91200 -15.28789  57.37400  1      202
siesta:     72.22914 -17.38549  54.19926  2      203
siesta:     70.87232 -17.02644  52.04119  3      204
siesta:     74.64043 -17.72375  53.37156  3      205
siesta:     71.42601 -19.95174  55.32742  2      206
siesta:     71.47136 -21.27832  53.75517  1      207
siesta:     72.86787 -20.48464  56.68236  1      208
siesta:     68.82007 -20.32590  56.59165  2      209
siesta:     67.46325 -18.16217  56.22693  3      210
siesta:     67.57474 -22.14382  55.26506  3      211
siesta:     68.56685 -21.04589  59.39412  2      212
siesta:     66.55429 -21.36147  59.75505  1      213
siesta:     69.51171 -22.86758  59.62655  1      214
siesta:     69.53628 -19.28655  61.52573  2      215
siesta:     69.58730 -20.65660  63.70836  3      216
siesta:     71.99670 -18.75176  61.04574  3      217
siesta:     68.14922 -16.77888  62.14367  2      218
siesta:     69.63077 -15.40694  62.57075  1      219
siesta:     67.20814 -16.13449  60.43158  1      220
siesta:     66.18390 -16.62015  64.30363  2      221
siesta:     67.47270 -16.86392  66.53917  3      222
siesta:     65.38833 -14.17673  64.40000  3      223
siesta:     63.84631 -18.36626  64.54551  2      224
siesta:     64.53039 -20.22386  65.09353  1      225
siesta:     62.79373 -17.65950  66.16312  1      226
siesta:     61.97359 -18.73286  62.36099  2      227
siesta:     63.19058 -18.11870  60.17835  3      228
siesta:     61.58620 -21.26699  62.21359  3      229
siesta:     59.34687 -17.44785  62.27784  2      230
siesta:     58.57397 -17.91839  60.43158  1      231
siesta:     58.11477 -18.34358  63.62899  1      232
siesta:     59.00672 -14.55846  62.59342  2      233
siesta:     56.52362 -14.05201  62.15123  3      234
siesta:     59.34687 -13.95752  65.06519  3      235
siesta:     60.53929 -12.66306  60.96448  2      236
siesta:     62.44036 -13.43029  60.78873  1      237
siesta:     59.69647 -12.64794  59.09176  1      238
siesta:     60.85110  -9.86248  61.73360  2      239
siesta:     61.26306  -8.47165  59.57742  3      240
siesta:     58.58720  -9.04801  62.65578  3      241
siesta:     62.96570  -9.13494  63.58931  2      242
siesta:     62.77484 -10.32925  65.23148  1      243
siesta:     64.76661  -9.59981  62.69925  1      244
siesta:     63.26995  -6.40617  64.63622  2      245
siesta:     63.68758  -6.68585  67.16845  3      246
siesta:     65.47904  -5.50477  63.70269  3      247
siesta:     61.14967  -4.40495  64.31685  2      248
siesta:     60.80763  -4.24244  62.30996  1      249
siesta:     59.49049  -5.20620  65.24849  1      250
siesta:     61.46526  -1.70831  65.40534  2      251
siesta:     62.36666  -1.85004  67.80718  3      252
siesta:     63.31341  -0.55180  64.06174  3      253
siesta:     59.15412   0.08693  65.45636  2      254
siesta:     59.92513   2.00878  65.55085  1      255
siesta:     58.22626  -0.08882  63.62143  1      256
siesta:     57.07920  -0.14173  67.49915  2      257
siesta:     54.92491   0.88439  66.55618  3      258
siesta:     56.51795  -2.64562  67.77694  3      259
siesta:     57.53273   0.98455  70.15044  2      260
siesta:     59.25050   0.15118  70.93090  1      261
siesta:     57.93714   2.97821  69.81218  1      262
siesta:     55.48238   0.87494  72.21780  2      263
siesta:     56.72771   0.89006  74.47414  3      264
siesta:     54.21815   3.11616  72.10253  3      265
siesta:     53.50384  -1.28879  72.28583  2      266
siesta:     52.41346  -1.15462  70.54350  1      267
siesta:     54.51295  -3.06892  72.21402  1      268
siesta:     51.59899  -1.52123  74.45335  2      269
siesta:     52.86511  -2.13728  76.63787  3      270
siesta:     50.69759   0.80880  75.01460  3      271
siesta:     49.36722  -3.38639  74.28327  2      272
siesta:     50.06453  -5.10793  73.39510  1      273
siesta:     48.81920  -3.88339  76.19379  1      274
siesta:     46.94648  -2.62672  72.86598  2      275
siesta:     45.85233  -0.62172  74.06784  3      276
siesta:     47.62112  -1.73666  70.56240  3      277
siesta:     44.83188  -4.58826  72.56362  2      278
siesta:     44.79787  -5.69375  74.30406  1      279
siesta:     43.05743  -3.54324  72.44079  1      280
siesta:     44.90747  -6.41184  70.28839  2      281
siesta:     44.41803  -5.04179  68.19457  3      282
siesta:     47.34144  -7.22254  69.98603  3      283
siesta:     43.24640  -8.81747  70.28461  2      284
siesta:     44.40102 -10.27633  69.41156  1      285
siesta:     42.88168  -9.38816  72.24426  1      286
siesta:     40.69716  -8.83258  68.86732  2      287
siesta:     41.21116  -8.74566  66.34642  3      288
siesta:     39.64458 -11.15884  69.17534  3      289
siesta:     38.63925  -6.85026  69.42479  2      290
siesta:     39.48773  -4.97754  69.07519  1      291
siesta:     37.12557  -7.09781  68.03395  1      292
siesta:     37.34667  -6.79924  72.04962  2      293
siesta:     36.04654  -8.98187  72.37654  3      294
siesta:     39.18916  -6.88805  73.86375  3      295
siesta:     35.46072  -4.66763  72.66756  2      296
siesta:     34.44405  -4.17819  70.93279  1      297
siesta:     34.08689  -5.47076  73.97147  1      298
siesta:     36.44716  -2.20531  73.83730  2      299
siesta:     38.42004  -1.37194  72.39733  3      300
siesta:     34.61224  -0.41574  73.50849  3      301
siesta:     37.33344  -2.02768  76.61520  2      302
siesta:     39.30065  -2.66074  76.67567  1      303
siesta:     37.34100   0.00000  77.05550  1      304
siesta:     35.92749  -3.35993  78.80350  2      305
siesta:     33.39336  -3.19553  78.39910  3      306
siesta:     36.39992  -5.88650  78.55784  3      307
siesta:     36.47173  -2.73632  81.61163  2      308
siesta:     35.56277  -4.17441  82.75681  1      309
siesta:     38.50696  -2.95742  81.84407  1      310
siesta:     35.77442  -0.13984  82.79082  2      311
siesta:     37.95138   0.81447  83.75270  3      312
siesta:     35.15081   1.46832  80.91433  3      313
siesta:     33.70139   0.02079  84.85441  2      314
siesta:     31.89103   0.05858  83.87175  1      315
siesta:     33.80721  -1.67052  86.03926  1      316
siesta:     33.62769   2.30358  86.71012  2      317
siesta:     34.82767   4.34448  85.67455  3      318
siesta:     31.16349   3.00467  86.90665  3      319
siesta:     34.54043   2.01823  89.44266  2      320
siesta:     34.47996   3.90229  90.24769  1      321
siesta:     33.12124   0.89951  90.43666  1      322
siesta:     37.14069   0.87116  90.09084  2      323
siesta:     37.21061  -1.53257  89.11574  3      324
siesta:     38.94160   2.16752  88.78504  3      325
siesta:     37.98918   0.68786  92.87630  2      326
siesta:     36.41693   0.01701  93.98935  1      327
siesta:     39.47639  -0.76723  92.95189  1      328
siesta:     38.98318   3.09159  94.20855  2      329
siesta:     40.99951   4.00811  92.90464  3      330
siesta:     37.21250   4.95108  93.95533  3      331
siesta:     39.71261   3.04435  97.01102  2      332
siesta:     40.69905   4.79613  97.40786  1      333
siesta:     37.92493   3.10860  98.08249  1      334
siesta:     41.28486   0.86549  98.18643  2      335
siesta:     41.50974   1.36249 100.70355  3      336
siesta:     39.79576  -1.23966  98.07871  3      337
siesta:     43.96450   0.24000  97.17543  2      338
siesta:     43.74340  -1.09415  95.58616  1      339
siesta:     44.76763   1.98610  96.41198  1      340
siesta:     45.93359  -0.94675  98.97067  2      341
siesta:     44.75251  -2.61916 100.49568  3      342
siesta:     47.50017  -2.38673  97.53825  3      343
siesta:     47.63435   0.62361 100.74323  2      344
siesta:     46.39846   1.67052 101.98667  1      345
siesta:     48.67181  -0.73132 101.89218  1      346
siesta:     49.59021   2.51145  99.68498  2      347
siesta:     48.31843   4.29346  98.31682  3      348
siesta:     50.45760   3.85504 101.69376  3      349
siesta:     51.90135   1.69509  98.09761  2      350
siesta:     51.37411  -0.04724  97.10928  1      351
siesta:     52.20748   3.16907  96.65764  1      352
siesta:     54.51295   1.26801  99.29948  2      353
siesta:     56.07387   0.23055  97.51369  3      354
siesta:     55.59765   3.57158  99.69821  3      355
siesta:     54.84176  -0.27590 101.74478  2      356
siesta:     55.14601   1.05636 103.28680  1      357
siesta:     53.06353  -1.18675 102.08683  1      358
siesta:     56.90535  -2.32625 101.97155  2      359
siesta:     59.18436  -1.21131 101.64274  3      360
siesta:     56.94692  -3.05002 104.43765  3      361
siesta:     56.85054  -4.73944 100.33505  2      362
siesta:     57.77273  -4.28401  98.54359  1      363
siesta:     58.00895  -6.12460 101.32149  1      364
siesta:     54.32398  -6.05657  99.71522  2      365
siesta:     52.96149  -6.33814 101.88840  3      366
siesta:     52.89346  -4.39173  98.37351  3      367
siesta:     54.24650  -8.57936  98.25257  2      368
siesta:     52.28496  -8.94975  97.74234  1      369
siesta:     55.27640  -8.28267  96.51024  1      370
siesta:     55.26506 -11.05490  99.44499  2      371
siesta:     57.74627 -10.70341 100.00813  3      372
siesta:     54.10855 -11.36482 101.71833  3      373
siesta:     55.01751 -13.55690  97.92187  2      374
siesta:     53.15991 -14.37515  98.38296  1      375
siesta:     54.93058 -13.01077  95.94332  1      376
siesta:     57.00361 -15.71308  98.21666  2      377
siesta:     57.03385 -16.36503 100.71299  3      378
siesta:     55.97938 -17.76154  97.02614  3      379
siesta:     59.75694 -15.42962  97.20944  2      380
siesta:     59.61521 -15.04790  95.18743  1      381
siesta:     60.54685 -13.74398  98.08816  1      382
siesta:     61.70525 -17.54233  97.56282  2      383
siesta:     64.03340 -16.60314  97.01291  3      384
siesta:     61.82430 -18.07713 100.08183  3      385
siesta:     61.47848 -20.04433  96.12474  2      386
siesta:     63.20947 -21.11959  96.51591  1      387
siesta:     59.89867 -21.08557  96.99212  1      388
siesta:     61.05519 -20.05378  93.24668  2      389
siesta:     58.60610 -19.37348  92.79504  3      390
siesta:     62.46303 -18.16972  92.26025  3      391
siesta:     61.53140 -22.44807  91.62152  2      392
siesta:     61.31786 -24.09969  92.81772  1      393
siesta:     59.97237 -22.52554  90.24391  1      394
siesta:     63.96348 -22.73341  90.05304  2      395
siesta:     63.84631 -25.02754  88.91165  3      396
siesta:     63.81419 -21.05156  88.10474  3      397
siesta:     66.61476 -22.50098  91.28137  2      398
siesta:     67.95080 -22.04933  89.77903  1      399
siesta:     66.56941 -20.88526  92.57394  1      400
siesta:     67.68813 -24.73841  92.82905  2      401
siesta:     69.62888 -23.86536  94.29170  3      402
siesta:     65.89100 -25.33746  94.58272  3      403
siesta:     68.53850 -27.22907  91.57050  2      404
siesta:     68.98448 -28.52732  93.10495  1      405
siesta:     66.90011 -27.99441  90.57839  1      406
siesta:     70.80051 -27.33490  89.74124  2      407
siesta:     71.75104 -24.95951  89.46912  3      408
siesta:     72.64488 -28.68038  90.88641  3      409
siesta:     70.47169 -28.49708  87.09373  2      410
siesta:     72.36142 -29.07912  86.51170  1      411
siesta:     69.33786 -30.23185  87.24113  1      412
siesta:     69.35676 -26.89459  84.94322  2      413
siesta:     68.03395 -24.90471  85.92021  3      414
siesta:     71.38632 -25.80422  83.78104  3      415
siesta:     67.71836 -28.05677  82.82106  2      416
siesta:     67.91489 -26.85302  81.15810  1      417
siesta:     68.53472 -29.87280  82.33162  1      418
siesta:     64.85354 -28.44606  83.27270  2      419
siesta:     64.13733 -30.37736  81.75336  3      420
siesta:     64.56252 -29.36069  85.67266  3      421
siesta:     62.94491 -26.26720  82.84941  2      422
siesta:     61.26306 -26.72074  83.98324  1      423
siesta:     63.81797 -24.57590  83.65632  1      424
siesta:     62.07564 -25.60958  80.12631  2      425
siesta:     61.41990 -23.12648  80.10552  3      426
siesta:     64.13166 -25.77210  78.58429  3      427
siesta:     59.97615 -27.14593  78.79972  2      428
siesta:     60.83976 -28.02654  77.15377  1      429
siesta:     59.40734 -28.70117  80.04883  1      430
siesta:     57.54218 -25.83257  77.87375  2      431
siesta:     58.18658 -24.29433  75.91222  3      432
siesta:     56.03418 -27.61836  76.76260  3      433
siesta:     55.79041 -24.26598  79.62742  2      434
siesta:     56.72582 -22.45373  80.01671  1      435
siesta:     54.11611 -23.83135  78.52193  1      436
siesta:     54.94381 -25.34124  82.19178  2      437
siesta:     55.32364 -27.88481  82.14643  3      438
siesta:     56.58976 -24.43039  83.95490  3      439
siesta:     52.22827 -24.95195  83.15176  2      440
siesta:     50.95082 -25.14471  81.56061  1      441
siesta:     51.81820 -26.52043  84.39520  1      442
siesta:     51.41947 -22.55767  84.62008  2      443
siesta:     49.12534 -23.04522  85.69155  3      444
siesta:     52.97471 -22.20429  86.64965  3      445
siesta:     51.20404 -19.99898  83.24058  2      446
siesta:     51.93725 -18.54011  84.50670  1      447
siesta:     52.45693 -20.07079  81.61730  1      448
siesta:     48.61133 -19.07112  82.23902  2      449
siesta:     49.01763 -17.24376  80.51181  3      450
siesta:     47.60411 -20.99109  80.85385  3      451
siesta:     46.56098 -18.15272  84.10796  2      452
siesta:     44.96983 -19.47364  83.95679  1      453
siesta:     47.35089 -18.29445  85.99202  1      454
siesta:     45.45738 -15.48064  83.87553  2      455
siesta:     47.40569 -13.84981  84.28371  3      456
siesta:     44.78653 -15.09325  81.40376  3      457
siesta:     43.22183 -14.63971  85.55549  2      458
siesta:     43.67726 -15.09514  87.50758  1      459
siesta:     43.11979 -12.58180  85.43644  1      460
siesta:     40.53275 -15.64505  85.08873  2      461
siesta:     40.49874 -17.11904  82.96468  3      462
siesta:     40.02630 -17.34202  86.94822  3      463
siesta:     38.28020 -13.80068  84.97913  2      464
siesta:     36.67960 -14.82113  85.75014  1      465
siesta:     38.69027 -12.26244  86.27170  1      466
siesta:     37.36179 -12.57235  82.51681  2      467
siesta:     35.49096 -14.06713  81.58518  3      468
siesta:     36.23173 -10.38216  83.17822  3      469
siesta:     39.20427 -11.90528  80.33607  2      470
siesta:     39.21750  -9.84926  80.13009  1      471
siesta:     41.11101 -12.45330  80.90488  1      472
siesta:     38.75074 -12.91061  77.64132  2      473
siesta:     36.46606 -12.01677  76.84385  3      474
siesta:     40.45527 -11.71631  76.10686  3      475
siesta:     38.81121 -15.76977  77.05739  2      476
siesta:     38.90192 -16.80723  78.80917  1      477
siesta:     36.99707 -16.21197  76.18245  1      478
siesta:     40.83889 -16.91495  75.30751  2      479
siesta:     43.14246 -16.53889  76.35630  3      480
siesta:     40.54598 -19.44529  75.42467  3      481
siesta:     40.98062 -16.11748  72.48992  2      482
siesta:     39.08144 -15.52978  71.89088  1      483
siesta:     42.20138 -14.46775  72.43701  1      484
siesta:     42.00485 -17.96185  70.45469  2      485
siesta:     44.40102 -18.59302  71.11798  3      486
siesta:     40.70094 -20.16905  70.56618  3      487
siesta:     42.07477 -17.07557  67.67112  2      488
siesta:     41.68926 -18.71963  66.47114  1      489
siesta:     40.54976 -15.72064  67.39711  1      490
siesta:     44.45582 -15.81323  66.56374  2      491
siesta:     43.69804 -14.05012  64.85543  3      492
siesta:     45.55754 -14.44507  68.42890  3      493
siesta:     46.53074 -17.43273  65.30329  2      494
siesta:     46.39468 -19.33002  66.08564  1      495
siesta:     46.04509 -17.56879  63.30018  1      496
siesta:     49.35778 -16.67684  65.50738  2      497
siesta:     50.07965 -17.27021  67.89789  3      498
siesta:     50.62200 -18.35303  64.04851  3      499
siesta:     50.28185 -13.99343  64.75716  2      500
siesta:     51.36656 -14.19185  63.01483  1      501
siesta:     48.59811 -12.84069  64.32441  1      502
siesta:     51.91647 -12.39661  66.58264  2      503
siesta:     50.48027 -11.79379  68.62354  3      504
siesta:     53.82320 -13.86493  67.51616  3      505
siesta:     53.22416  -9.96264  65.61888  2      506
siesta:     54.81342  -9.62438  66.91145  1      507
siesta:     54.01406 -10.40295  63.75561  1      508
siesta:     51.76151  -7.45497  65.34487  2      509
siesta:     49.27841  -7.97843  64.84976  3      510
siesta:     51.78419  -6.33247  67.66923  3      511
siesta:     52.67803  -5.43485  63.47971  2      512
siesta:     54.48083  -4.74510  64.17890  1      513
siesta:     53.04652  -6.36838  61.68069  1      514
siesta:     50.99428  -3.11994  62.88444  2      515
siesta:     52.58732  -1.24344  62.11910  3      516
siesta:     49.68281  -3.69442  60.75094  3      517
siesta:     49.16502  -1.92185  64.82141  2      518
siesta:     47.69671  -3.28435  65.27306  1      519
siesta:     50.25162  -1.63083  66.53350  1      520
siesta:     47.78930   0.62172  64.22048  2      521
siesta:     46.59689   0.39306  61.95281  3      522
siesta:     45.85611   0.86172  65.89100  3      523
siesta:     49.21416   3.18230  64.18835  2      524
siesta:     50.96593   2.92719  63.13955  1      525
siesta:     48.01985   4.53157  63.15467  1      526
siesta:     49.93414   4.48999  66.68846  2      527
siesta:     50.28185   2.65696  68.44213  3      528
siesta:     52.23205   5.55202  66.35398  3      529
siesta:     48.20126   6.45720  67.93757  2      530
siesta:     46.27374   5.77878  67.72781  1      531
siesta:     48.67370   6.45909  69.94446  1      532
siesta:     48.18804   9.24643  66.98515  2      533
siesta:     48.29008   9.23510  64.42835  3      534
siesta:     45.86178  10.24232  67.51049  3      535
siesta:     50.13067  11.23065  67.91867  2      536
siesta:     51.97505  10.64105  67.22136  1      537
siesta:     49.65824  13.01077  67.01538  1      538
siesta:     50.42547  11.76166  70.77594  2      539
siesta:     51.43648   9.69241  71.85686  3      540
siesta:     52.26418  13.52100  71.02916  3      541
siesta:     48.13890  12.59692  72.38410  2      542
siesta:     47.32443  14.29578  71.50727  1      543
siesta:     46.73861  11.11159  72.31418  1      544
siesta:     48.46583  13.26399  75.22436  2      545
siesta:     49.76029  15.48631  75.32451  3      546
siesta:     46.16414  13.83280  76.20891  3      547
siesta:     49.77352  11.43852  77.06306  2      548
siesta:     51.71238  11.20797  76.42433  1      549
siesta:     49.81887  12.39661  78.87531  1      550
siesta:     48.71905   8.75133  77.57896  2      551
siesta:     47.96316   8.64928  80.05639  3      552
siesta:     46.54019   8.38094  76.24859  3      553
siesta:     50.36500   6.36838  77.11031  2      554
siesta:     49.08566   4.79991  77.01015  1      555
siesta:     51.23428   6.52712  75.25648  1      556
siesta:     52.48905   5.61627  78.93956  2      557
siesta:     54.44870   4.74888  77.47313  3      558
siesta:     53.42258   7.74599  80.00915  3      559
siesta:     51.99206   3.60560  80.98991  2      560
siesta:     50.24973   4.17063  81.97257  1      561
siesta:     51.66135   1.81792  80.01482  1      562
siesta:     53.93469   2.99900  83.09885  2      563
siesta:     53.26573   4.40306  85.13598  3      564
siesta:     53.46226   0.57448  83.84718  3      565
siesta:     56.84298   3.32025  82.76815  2      566
siesta:     57.20203   3.61127  80.75370  1      567
siesta:     57.38345   5.03990  83.78293  1      568
siesta:     58.61177   1.16407  83.61286  2      569
siesta:     58.01650   0.47432  86.01281  3      570
siesta:     58.02217  -0.89006  82.15777  3      571
siesta:     61.50305   1.47966  83.59207  2      572
siesta:     61.92068   3.15773  82.48469  1      573
siesta:     62.06997   1.86894  85.55549  1      574
siesta:     63.20569  -0.68597  82.62264  2      575
siesta:     62.78051  -0.94297  80.10174  3      576
siesta:     65.63588   0.20409  82.77193  3      577
siesta:     63.13389  -3.32403  83.89254  2      578
siesta:     64.92157  -3.47521  84.91866  1      579
siesta:     61.64667  -3.27679  85.27582  1      580
siesta:     62.83909  -5.76745  82.34107  2      581
siesta:     64.56252  -5.71642  80.44756  3      582
siesta:     63.58931  -7.68174  83.88876  3      583
siesta:     60.26528  -6.52712  81.14487  2      584
siesta:     59.58309  -4.92841  80.05072  1      585
siesta:     60.72259  -8.05780  79.83529  1      586
siesta:     58.03729  -7.51166  82.79460  2      587
siesta:     57.72738 -10.00043  82.20123  3      588
siesta:     58.83476  -7.49466  85.23991  3      589
siesta:     55.43325  -6.20586  82.70957  2      590
siesta:     55.61277  -4.39739  83.66199  1      591
siesta:     55.05341  -5.84304  80.72913  1      592
siesta:     53.06542  -7.50788  83.86608  2      593
siesta:     53.77029  -8.53023  86.12619  3      594
siesta:     51.40057  -5.63706  84.50481  3      595
siesta:     51.61033  -9.58847  82.45445  2      596
siesta:     52.83487 -11.24954  82.38642  1      597
siesta:     49.97383 -10.06091  83.63742  1      598
siesta:     50.57476  -9.15573  79.76159  2      599
siesta:     49.74706  -6.72176  79.64632  3      600
siesta:     52.58921  -9.17651  78.17233  3      601
siesta:     48.44504 -10.88105  78.77138  2      602
siesta:     48.65480 -12.66495  79.77671  1      603
siesta:     46.66492 -10.00232  79.38932  1      604
siesta:     48.12378 -11.48198  75.94245  2      605
siesta:     45.60289 -11.55379  75.51727  3      606
siesta:     48.86834  -9.42974  74.56673  3      607
siesta:     49.20282 -13.94052  74.78405  2      608
siesta:     48.23717 -15.54678  75.65900  1      609
siesta:     48.69826 -13.90839  72.79606  1      610
siesta:     52.07142 -14.51688  74.93523  2      611
siesta:     53.34321 -12.42306  74.06784  3      612
siesta:     52.71204 -14.70963  77.41833  3      613
siesta:     53.24305 -16.81101  73.54817  2      614
siesta:     52.88968 -16.53700  71.54317  1      615
siesta:     55.24428 -16.75432  73.90533  1      616
siesta:     52.38134 -19.55489  74.23225  2      617
siesta:     54.50161 -21.01943  74.23981  3      618
siesta:     51.52529 -19.58135  76.65299  3      619
siesta:     50.38957 -20.92873  72.59575  2      620
siesta:     48.90613 -19.56056  72.17056  1      621
siesta:     51.28152 -21.46163  70.81563  1      622
siesta:     49.09321 -23.29466  73.68801  2      623
siesta:     48.80787 -24.96707  71.76427  3      624
siesta:     50.75806 -24.47007  75.26215  3      625
siesta:     46.50807 -22.99798  74.97302  2      626
siesta:     46.59122 -21.24431  76.04828  1      627
siesta:     45.13046 -22.76365  73.43101  1      628
siesta:     45.41203 -25.04644  76.74559  2      629
siesta:     44.78464 -27.08546  75.30184  3      630
siesta:     47.29797 -25.84390  78.28383  3      631
siesta:     43.10656 -24.43417  78.41044  2      632
siesta:     43.25396 -22.47263  78.98113  1      633
siesta:     41.44927 -24.61747  77.20668  1      634
siesta:     42.59255 -25.96107  80.84441  2      635
siesta:     44.13457 -25.02187  82.67366  3      636
siesta:     40.25685 -25.33746  81.66266  3      637
siesta:     42.87412 -28.89392  80.79338  2      638
siesta:     41.71383 -29.57612  79.22491  1      639
siesta:     44.81865 -29.34179  80.27749  1      640
siesta:     42.17681 -30.52098  83.10830  2      641
siesta:     39.71828 -30.08256  83.66010  3      642
siesta:     42.22973 -32.93605  82.29761  3      643
siesta:     43.68293 -30.31122  85.61597  2      644
siesta:     45.03219 -28.75786  85.32873  1      645
siesta:     42.37335 -29.66871  87.04271  1      646
siesta:     45.13235 -32.58834  86.69311  2      647
siesta:     45.65202 -32.02898  89.14220  3      648
siesta:     43.52041 -34.57822  86.86697  3      649
siesta:     47.61923 -33.54643  85.48180  2      650
siesta:     48.37701 -34.95050  86.75925  1      651
siesta:     47.13735 -34.49696  83.71490  1      652
siesta:     49.71871 -31.63025  84.86763  2      653
siesta:     48.98739 -30.46807  82.70012  3      654
siesta:     49.62990 -29.78776  86.64587  3      655
siesta:     52.52118 -32.35779  84.55016  2      656
siesta:     52.89723 -32.34079  82.50925  1      657
siesta:     53.63234 -30.80822  85.38731  1      658
siesta:     53.66257 -34.85412  85.58573  2      659
siesta:     53.54730 -34.79743  88.13875  3      660
siesta:     52.07331 -36.77220  84.95645  3      661
siesta:     56.33654 -35.73662  84.82984  2      662
siesta:     56.71826 -37.36935  85.96746  1      663
siesta:     56.18914 -36.33378  82.87019  1      664
siesta:     58.64389 -33.96973  84.97535  2      665
siesta:     59.09743 -33.02487  82.61697  3      666
siesta:     58.03540 -31.86835  86.33406  3      667
siesta:     61.18747 -34.93349  86.05627  2      668
siesta:     62.37422 -33.30266  86.31139  1      669
siesta:     60.77173 -35.69883  87.92710  1      670
siesta:     62.72381 -36.94983  84.62575  2      671
siesta:     62.85421 -39.05499  86.13186  3      672
siesta:     61.39156 -37.70950  82.55461  3      673
siesta:     65.46959 -36.44338  83.72813  2      674
siesta:     66.03651 -38.09311  82.63587  1      675
siesta:     65.41290 -34.82578  82.47146  1      676
siesta:     67.58986 -35.94638  85.67077  2      677
siesta:     69.31518 -34.45161  84.47079  3      678
siesta:     66.59586 -34.41571  87.51325  3      679
siesta:     68.97881 -38.18004  86.97090  2      680
siesta:     67.50482 -39.26663  87.94600  1      681
siesta:     69.82730 -39.36112  85.49691  1      682
siesta:     71.08397 -37.65281  88.93622  2      683
siesta:     73.35353 -38.06477  87.75514  3      684
siesta:     71.13121 -35.15270  89.52392  3      685
siesta:     71.19357 -39.13246  91.46467  2      686
siesta:     71.05373 -41.14502  91.00736  1      687
siesta:     73.05684 -38.78286  92.26214  1      688
siesta:     69.19991 -38.59956  93.53581  2      689
siesta:     66.88499 -38.63547  92.39442  3      690
siesta:     69.20558 -40.67259  95.06460  3      691
siesta:     69.41912 -36.25252  95.23846  2      692
siesta:     69.86509 -36.94416  97.13385  1      693
siesta:     71.07641 -35.21695  94.56193  1      694
siesta:     67.22325 -34.34579  95.52380  2      695
siesta:     66.80373 -33.31588  93.20322  3      696
siesta:     65.07841 -35.66293  96.06427  3      697
siesta:     67.38010 -32.16693  97.46077  2      698
siesta:     66.24627 -30.60980  96.72756  1      699
siesta:     66.46736 -32.83023  99.17476  1      700
siesta:     69.95580 -31.04821  98.25257  2      701
siesta:     71.04050 -32.71117  99.91175  3      702
siesta:     71.49782 -31.02743  96.22489  3      703
siesta:     70.10131 -28.35535  99.44877  2      704
siesta:     69.01849 -27.08357  98.26013  1      705
siesta:     69.16211 -28.41204 101.31015  1      706
siesta:     72.69968 -27.09490  99.90419  2      707
siesta:     73.22314 -25.73619  97.79715  3      708
siesta:     72.36331 -25.33935 101.74856  3      709
siesta:     75.07129 -28.70306 100.55804  2      710
siesta:     75.27349 -30.09012  99.03303  1      711
siesta:     76.67756 -27.44639 100.46733  1      712
siesta:     75.27916 -30.05800 103.13373  2      713
siesta:     76.76826 -28.64259 104.64552  3      714
siesta:     72.99448 -30.00130 104.31670  3      715
siesta:     76.26938 -32.77920 103.31515  2      716
siesta:     76.22780 -33.26297 105.31070  1      717
siesta:     74.92200 -34.01319 102.35139  1      718
siesta:     78.90555 -33.46895 102.30036  2      719
siesta:     78.61453 -35.46261 100.70355  3      720
siesta:     79.71057 -31.54521 100.78669  3      721
siesta:     81.10897 -34.04721 104.14663  2      722
siesta:     82.83996 -33.33289 103.30381  1      723
siesta:     80.76315 -32.96818 105.85305  1      724
siesta:     81.65132 -36.80243 104.94976  2      725
siesta:     82.94578 -36.67582 107.15885  3      726
siesta:     79.42711 -37.88713 105.62250  3      727
siesta:     83.01003 -38.62035 103.10728  2      728
siesta:     81.96690 -40.39102 103.11484  1      729
siesta:     82.78893 -37.83611 101.23078  1      730
siesta:     85.84651 -39.30065 103.40585  2      731
siesta:     85.97690 -41.20360 105.11606  3      732
siesta:     86.62886 -40.38346 101.19865  3      733
siesta:     87.87230 -37.33155 104.14474  2      734
siesta:     87.29593 -36.53976 105.97210  1      735
siesta:     89.64108 -38.37657 104.44898  1      736
siesta:     88.55449 -35.11302 102.38162  2      737
siesta:     90.43666 -35.97284 100.88307  3      738
siesta:     86.55516 -34.73885 100.82071  3      739
siesta:     89.31038 -32.52220 103.49467  2      740
siesta:     87.64931 -31.80599 104.46410  1      741
siesta:     90.72012 -32.89448 104.93653  1      742
siesta:     90.42343 -30.43027 101.79770  2      743
siesta:     91.69711 -28.83723 103.35105  3      744
siesta:     92.27725 -31.46584 100.33694  3      745
siesta:     88.72457 -28.81833 100.07427  2      746
siesta:     89.94911 -27.86213  98.74957  1      747
siesta:     87.52648 -30.05989  98.94799  1      748
siesta:     86.98791 -26.78499 101.26668  2      749
siesta:     86.80082 -27.27254 103.80648  3      750
siesta:     88.29182 -24.56834 101.12495  3      751
siesta:     84.26670 -26.32012 100.29347  2      752
siesta:     84.45945 -25.28833  98.50768  1      753
siesta:     83.40876 -28.13425  99.92498  1      754
siesta:     82.39776 -24.79889 101.96210  2      755
siesta:     80.39276 -24.22630 100.44654  3      756
siesta:     81.49258 -26.41271 103.74412  3      757
siesta:     83.25192 -22.33468 103.31893  2      758
siesta:     84.84874 -22.83735 104.54347  1      759
siesta:     83.94734 -21.08179 101.85061  1      760
siesta:     81.39432 -20.77566 104.94787  2      761
siesta:     80.00915 -22.36681 106.43320  3      762
siesta:     82.83051 -19.46041 106.65052  3      763
siesta:     79.49325 -18.91428 103.72711  2      764
siesta:     78.82618 -19.78166 101.98856  1      765
siesta:     77.89076 -18.75932 104.98945  1      766
siesta:     80.26804 -16.20819 103.00523  2      767
siesta:     82.46390 -16.31212 101.66731  3      768
siesta:     78.51437 -15.31057 101.36684  3      769
siesta:     80.62898 -14.10303 105.01968  2      770
siesta:     82.34863 -14.54523 106.06470  1      771
siesta:     80.92377 -12.35881 103.96332  1      772
siesta:     78.53894 -13.61548 106.98500  2      773
siesta:     76.27316 -14.26366 105.95699  3      774
siesta:     78.90177 -15.30679 108.88228  3      775
siesta:     78.27249 -10.97364 108.23600  2      776
siesta:     77.69045 -11.25710 110.19942  1      777
siesta:     80.17544 -10.22720 108.32292  1      778
siesta:     76.59441  -8.88739 107.09082  2      779
siesta:     77.07818  -6.70664 108.39095  3      780
siesta:     77.42589  -8.41873 104.70599  3      781
siesta:     73.70880  -9.25021 106.95476  2      782
siesta:     73.33274 -10.53523 105.38251  1      783
siesta:     73.13243 -10.21397 108.65552  1      784
siesta:     71.97592  -6.90317 106.62028  2      785
siesta:     72.72992  -5.64461 104.51323  3      786
siesta:     69.62699  -7.77623 105.97966  3      787
siesta:     71.56774  -4.93408 108.71788  2      788
siesta:     73.23637  -3.75300 108.78780  1      789
siesta:     70.03328  -3.72276 108.06025  1      790
siesta:     70.93279  -5.78256 111.46365  2      791
siesta:     69.57030  -7.93685 111.33893  3      792
siesta:     73.12487  -6.54223 112.58993  3      793
siesta:     69.51360  -3.96465 113.25700  2      794
siesta:     67.78639  -3.36749 112.32915  1      795
siesta:     68.94669  -5.02856 114.92563  1      796
siesta:     70.84775  -1.55525 114.23777  2      797
siesta:     73.19479  -1.41730 113.16251  3      798
siesta:     69.63833   0.47621 113.20598  3      799
siesta:     71.19546  -1.09793 117.09882  2      800
siesta:     71.71891  -2.90829 117.92652  1      801
siesta:     72.77905   0.19275 117.29535  1      802
siesta:     69.00716   0.02457 118.69941  2      803
siesta:     68.90889   2.57192 118.24966  3      804
siesta:     66.82641  -0.87494 117.69786  3      805
siesta:     68.90700  -0.46109 121.56424  2      806
siesta:     66.94735  -0.24566 122.14439  1      807
siesta:     69.42101  -2.43208 121.82691  1      808
siesta:     70.52650   1.11872 123.39728  2      809
siesta:     70.71358  -0.18897 125.60070  3      810
siesta:     72.91322   1.14706 122.40328  3      811
siesta:     69.78572   3.83426 124.12671  2      812
siesta:     68.69724   4.60337 122.55446  1      813
siesta:     68.54039   3.71709 125.77266  1      814
siesta:     71.80962   5.82225 124.85237  2      815
siesta:     70.55673   7.91229 125.66495  3      816
siesta:     72.98692   4.95297 126.96508  3      817
siesta:     73.86753   6.77467 123.00799  2      818
siesta:     75.19790   7.89339 124.13616  1      819
siesta:     74.89366   5.10982 122.32580  1      820
siesta:     73.14755   8.38094 120.67985  2      821
siesta:     70.86098   7.57214 119.76711  3      822
siesta:     72.70346  10.81491 121.48298  3      823
siesta:     75.01460   8.62660 118.45375  2      824
siesta:     74.51571  10.35003 117.42952  1      825
siesta:     76.85708   8.86660 119.26444  1      826
siesta:     75.19034   6.48365 116.50733  2      827
siesta:     77.66022   6.21342 115.88561  3      828
siesta:     74.62720   4.26700 117.68463  3      829
siesta:     73.64266   6.55357 114.04691  2      830
siesta:     74.04706   4.80747 113.00000  1      831
siesta:     71.66411   6.48554 114.61005  1      832
siesta:     73.96013   8.74188 112.14395  2      833
siesta:     72.14788  10.46909 112.65985  3      834
siesta:     76.17300   9.94374 112.65229  3      835
siesta:     73.86942   8.24110 109.28480  2      836
siesta:     73.93178  10.09114 108.39284  1      837
siesta:     75.59474   7.25844 108.75378  1      838
siesta:     71.62632   6.75199 108.14718  2      839
siesta:     69.59108   7.14506 109.68353  3      840
siesta:     70.97247   7.90284 105.95321  3      841
siesta:     71.77750   3.87205 107.63884  2      842
siesta:     73.16645   3.09159 108.96921  1      843
siesta:     69.94257   3.05758 108.16986  1      844
siesta:     72.43512   2.83459 105.00645  2      845
siesta:     72.32741   0.25322 105.16708  3      846
siesta:     70.48681   3.40529 103.43042  3      847
siesta:     74.96735   3.47899 103.71766  2      848
siesta:     76.21835   4.23677 105.16897  1      849
siesta:     75.78750   1.68564 103.07893  1      850
siesta:     75.12987   5.31202 101.47266  2      851
siesta:     74.19635   7.57025 102.27958  3      852
siesta:     77.63187   5.75611 101.01724  3      853
siesta:     73.86186   4.75266  98.90642  2      854
siesta:     71.83797   5.14195  99.13885  1      855
siesta:     74.64043   6.10382  97.54392  1      856
siesta:     74.16800   2.14106  97.63085  2      857
siesta:     74.34563   2.55302  95.08161  3      858
siesta:     76.47536   1.20943  98.28658  3      859
siesta:     72.16867   0.06614  98.07871  2      860
siesta:     71.67734   0.06425 100.07238  1      861
siesta:     70.47925   0.65196  97.04314  1      862
siesta:     72.70724  -2.70042  97.28881  2      863
siesta:     70.44902  -3.94008  97.33416  3      864
siesta:     73.44801  -2.64940  94.83405  3      865
siesta:     74.55350  -4.37094  98.77980  2      866
siesta:     75.69301  -3.13884 100.01757  1      867
siesta:     73.38376  -5.59170  99.98923  1      868
siesta:     76.39032  -6.10571  97.30582  2      869
siesta:     75.00137  -7.52867  95.66553  3      870
siesta:     77.94179  -4.63550  95.86395  3      871
siesta:     78.09863  -7.98977  98.77224  2      872
siesta:     79.12097  -6.90128 100.16686  1      873
siesta:     76.83063  -9.28423  99.75868  1      874
siesta:     80.13198  -9.60737  97.43432  2      875
siesta:     81.97068  -8.03890  96.50079  3      876
siesta:     81.34896 -10.89617  99.29003  3      877
siesta:     79.39121 -11.63316  95.42932  2      878
siesta:     80.89921 -13.05801  95.41987  1      879
siesta:     77.70746 -12.58369  96.16820  1      880
siesta:     78.93011 -10.95664  92.64386  2      881
siesta:     79.19845  -8.41306  92.31694  3      882
siesta:     80.84819 -11.90528  91.22468  3      883
siesta:     76.43945 -11.72765  91.31160  2      884
siesta:     74.89555 -10.76199  92.29804  1      885
siesta:     76.60386 -10.94719  89.39920  1      886
siesta:     75.74592 -14.54901  91.07161  2      887
siesta:     77.83407 -15.76788  90.31572  3      888
siesta:     75.26215 -15.50143  93.41298  3      889
siesta:     73.60297 -15.40127  89.27259  2      890
siesta:     73.42156 -13.97264  87.79482  1      891
siesta:     74.26060 -17.15872  88.39953  1      892
siesta:     70.91389 -15.96252  90.25902  2      893
siesta:     69.47203 -16.56157  88.21056  3      894
siesta:     70.99326 -18.15461  91.59695  3      895
siesta:     69.44179 -14.01610  91.83506  2      896
siesta:     68.21158 -15.03845  93.12007  1      897
siesta:     70.82129 -13.03912  93.00480  1      898
siesta:     67.82608 -11.98843  90.50658  2      899
siesta:     67.80529  -9.86626  91.97868  3      900
siesta:     69.06196 -11.20797  88.38064  3      901
siesta:     65.09164 -12.60448  89.75069  2      902
siesta:     64.80440 -11.78245  87.86852  1      903
siesta:     64.99338 -14.65105  89.59006  1      904
siesta:     62.84854 -11.81457  91.45522  2      905
siesta:     60.90212 -13.35848  90.78437  3      906
siesta:     63.51750 -12.47976  93.83061  3      907
siesta:     61.87344  -9.07447  91.53270  2      908
siesta:     63.29829  -7.92929  92.52292  1      909
siesta:     61.74116  -8.41306  89.58628  1      910
siesta:     59.35065  -8.42062  92.82905  2      911
siesta:     58.47382 -10.53712  94.02714  3      912
siesta:     59.88544  -6.85404  94.80193  3      913
siesta:     57.11699  -7.34726  91.30971  2      914
siesta:     57.06408  -8.30157  89.52770  1      915
siesta:     55.39356  -7.89906  92.33394  1      916
siesta:     56.87511  -4.50511  90.75602  2      917
siesta:     57.32298  -3.25978  92.94622  3      918
siesta:     58.78562  -3.86449  89.17243  3      919
siesta:     54.37689  -3.46576  89.66187  2      920
siesta:     54.81153  -2.55302  87.84962  1      921
siesta:     53.19392  -5.10037  89.24235  1      922
siesta:     52.68936  -1.63650  91.15853  2      923
siesta:     51.74072  -2.96687  93.14086  3      924
siesta:     54.17847   0.21732  92.20166  3      925
siesta:     50.52752  -0.30047  89.74880  2      926
siesta:     51.33254   1.23777  88.68110  1      927
siesta:     49.69793  -1.61383  88.39575  1      928
siesta:     48.32788   0.79369  91.29837  2      929
siesta:     47.18648  -1.14140  92.52859  3      930
siesta:     49.27085   2.25822  93.18621  3      931
siesta:     46.21705   2.36027  90.03604  2      932
siesta:     44.78275   1.06770  89.34251  1      933
siesta:     45.32510   3.52056  91.50435  1      934
siesta:     46.82932   4.18763  87.84395  2      935
siesta:     48.67936   5.78823  88.67543  3      936
siesta:     47.92536   2.87805  85.94289  3      937
siesta:     44.72795   5.83548  86.66098  2      938
siesta:     43.31443   6.11705  88.10852  1      939
siesta:     45.59533   7.65150  86.30194  1      940
siesta:     43.39380   5.02289  84.20245  2      941
siesta:     45.11912   5.03801  82.31083  3      942
siesta:     42.79098   2.52656  84.46890  3      943
siesta:     40.97306   6.41940  83.38042  2      944
siesta:     39.37624   5.38761  84.15521  1      945
siesta:     40.98818   8.27133  84.28560  1      946
siesta:     40.43260   6.86916  80.55528  2      947
siesta:     38.00430   7.70064  80.32284  3      948
siesta:     41.81399   8.89494  79.78049  3      949
siesta:     40.82377   4.71298  78.61642  2      950
siesta:     42.85523   4.43897  78.42367  1      951
siesta:     40.05276   3.00845  79.46868  1      952
siesta:     39.78631   4.86227  75.91789  2      953
siesta:     40.44960   2.68530  74.76893  3      954
siesta:     37.19360   4.76022  76.03694  3      955
siesta:     40.51008   7.06380  74.11698  2      956
siesta:     38.76208   8.09559  73.69557  1      957
siesta:     41.76296   8.38094  75.10153  1      958
siesta:     41.74785   6.51200  71.53750  2      959
siesta:     41.92737   8.74566  70.31485  3      960
siesta:     44.18370   5.80902  71.97970  3      961
siesta:     40.65369   4.49188  69.71202  2      962
siesta:     41.92926   2.89695  69.76872  1      963
siesta:     38.86979   3.83237  70.53972  1      964
siesta:     40.10189   5.11738  66.91145  2      965
siesta:     38.23484   6.86916  66.78106  3      966
siesta:     42.14280   6.31925  65.94391  3      967
siesta:     39.43671   2.99900  65.00660  2      968
siesta:     39.44616   3.90796  63.15467  1      969
siesta:     40.97306   1.63650  65.08219  1      970
siesta:     36.95172   1.45320  65.20503  2      971
siesta:     36.88369   0.41385  67.55774  3      972
siesta:     35.00530   3.11427  65.15022  3      973
siesta:     36.33378  -0.66140  63.30774  2      974
siesta:     36.67204  -2.43397  64.26772  1      975
siesta:     34.30799  -0.56125  62.89578  1      976
siesta:     37.63769  -0.87305  60.70937  2      977
siesta:     36.01064  -2.20153  59.22971  3      978
siesta:     37.68304   1.45887  59.64734  3      979
siesta:     40.32110  -2.02579  60.38433  2      980
siesta:     40.40236  -2.71932  58.44925  1      981
siesta:     41.66659  -0.45353  60.52795  1      982
siesta:     41.26408  -4.14228  62.14745  2      983
siesta:     41.52108  -3.09537  64.48693  3      984
siesta:     39.35356  -5.83737  62.40823  3      985
siesta:     43.74718  -5.56903  61.59565  2      986
siesta:     45.10967  -4.14795  60.94747  1      987
siesta:     44.45016  -6.36082  63.37199  1      988
siesta:     43.79631  -7.72709  59.64167  2      989
siesta:     43.04042  -9.89083  60.83598  3      990
siesta:     41.96516  -7.24899  57.89934  3      991
siesta:     46.26618  -8.36771  58.21304  2      992
siesta:     47.06365  -6.58381  57.59321  1      993
siesta:     47.56820  -9.24265  59.58687  1      994
siesta:     46.20571 -10.08736  55.88300  2      995
siesta:     45.28730  -8.68141  53.92714  3      996
siesta:     48.65102 -10.52956  55.17814  3      997
siesta:     44.85834 -12.67629  55.92836  2      998
siesta:     42.89302 -12.34181  56.44803  1      999
siesta:     44.85834 -13.38494  54.01784  1     1000
siesta:     45.82588 -14.79467  57.71415  2     1001
siesta:     48.05575 -14.05201  58.76673  3     1002
siesta:     44.17803 -14.89483  59.69647  3     1003
siesta:     46.09989 -17.51399  56.71070  2     1004
siesta:     46.02052 -18.74420  58.33776  1     1005
siesta:     44.44638 -17.91461  55.55419  1     1006
siesta:     48.45449 -18.28311  55.15924  2     1007
siesta:     47.88379 -20.45062  53.91013  3     1008
siesta:     48.76818 -16.53889  53.31486  3     1009
siesta:     51.05097 -18.67050  56.42347  2     1010
siesta:     52.41157 -18.86514  54.91168  1     1011
siesta:     51.46293 -16.96408  57.50439  1     1012
siesta:     51.54986 -20.97975  58.12611  2     1013
siesta:     53.30731 -20.26354  59.83442  3     1014
siesta:     49.46171 -21.45974  59.56230  3     1015
siesta:     52.33410 -23.55545  56.97716  2     1016
siesta:     51.98072 -25.01998  58.40201  1     1017
siesta:     51.04719 -23.92772  55.42002  1     1018
siesta:     55.02318 -24.01843  55.96237  2     1019
siesta:     55.06664 -26.48830  55.24428  3     1020
siesta:     55.24617 -22.65027  53.79674  3     1021
siesta:     57.39856 -23.50253  57.59510  2     1022
siesta:     57.76706 -21.47108  57.41368  1     1023
siesta:     56.89968 -23.84079  59.55663  1     1024
siesta:     59.93647 -24.88203  57.09054  2     1025
siesta:     59.98182 -25.65304  54.65279  3     1026
siesta:     61.76761 -23.07923  57.20203  3     1027
siesta:     60.82086 -27.07412  58.81964  2     1028
siesta:     60.48827 -26.50720  60.77173  1     1029
siesta:     59.62277 -28.72196  58.41713  1     1030
siesta:     63.60065 -27.96040  58.66657  2     1031
siesta:     64.23560 -28.16260  56.17591  3     1032
siesta:     65.06519 -26.04044  59.57931  3     1033
siesta:     64.47370 -30.43972  59.94403  2     1034
siesta:     63.27561 -31.96662  59.22404  1     1035
siesta:     66.37855 -30.83278  59.26561  1     1036
siesta:     64.56063 -30.68539  62.85610  2     1037
siesta:     62.15501 -31.08223  63.66112  3     1038
siesta:     65.76439 -32.89070  63.37955  3     1039
siesta:     65.68502 -28.60102  64.59275  2     1040
siesta:     64.64567 -26.85869  64.25260  1     1041
siesta:     65.27873 -29.19817  66.53917  1     1042
siesta:     68.51205 -27.88103  64.53228  2     1043
siesta:     69.14511 -27.32167  62.10398  3     1044
siesta:     68.67834 -25.64359  65.76816  3     1045
siesta:     70.57941 -29.62336  65.63777  2     1046
siesta:     69.82730 -30.52665  67.31774  1     1047
siesta:     70.84775 -31.10868  64.23182  1     1048
siesta:     73.22881 -28.61046  66.36532  2     1049
siesta:     73.23637 -28.22118  68.91456  3     1050
siesta:     74.86909 -30.60035  66.09320  3     1051
siesta:     74.48736 -26.30311  65.04629  2     1052
siesta:     76.24670 -26.95317  64.23560  1     1053
siesta:     73.25337 -25.72107  63.51939  1     1054
siesta:     75.07318 -23.87670  66.54673  2     1055
siesta:     75.36609 -21.96996  64.86676  3     1056
siesta:     72.94724 -23.22096  67.86198  3     1057
siesta:     77.35597 -23.78410  68.35520  2     1058
siesta:     78.07407 -25.70218  68.46292  1     1059
siesta:     78.78649 -22.60680  67.44813  1     1060
siesta:     77.03850 -22.93373  71.16145  2     1061
siesta:     75.50215 -24.61180  72.33119  3     1062
siesta:     79.28916 -23.27577  72.33497  3     1063
siesta:     76.08985 -20.30323  71.92867  2     1064
siesta:     74.06596 -20.52243  72.32174  1     1065
siesta:     77.00448 -19.82701  73.72202  1     1066
siesta:     76.37709 -17.94674  70.22225  2     1067
siesta:     76.92322 -15.99087  71.77372  3     1068
siesta:     78.48792 -18.21130  68.80685  3     1069
siesta:     74.18690 -17.11148  68.45158  2     1070
siesta:     74.86909 -17.39305  66.50327  1     1071
[...]
siesta:   1082   -0.155915    0.187955    0.058398
siesta:   1083    0.384189   -0.632906    0.531945
siesta:   1084    0.759990    0.482949   -0.481249
siesta:   1085   -0.250106   -0.430331    0.304574
siesta:   1086    1.387041    0.344634    0.551880
siesta:   1087   -0.565687    0.953845   -1.226008
siesta:   1088    0.873691   -0.750110    0.267231
siesta:   1089   -0.740709   -0.043050   -0.162974
siesta:   1090   -0.018136   -0.604152    0.195840
siesta:   1091    0.770656   -0.257835    0.074923
siesta:   1092   -0.606049    1.713279   -0.574107
siesta:   1093   -0.766864   -0.740316    0.716214
siesta:   1094   -0.222026   -0.294081   -0.163190
siesta:   1095    0.615606   -0.124997    0.181180
siesta:   1096    0.337969    0.657102   -0.660290
siesta:   1097   -0.673552   -0.058099    0.609943
siesta:   1098   -0.338854   -1.221082    0.484915
siesta:   1099    1.337592    0.901192   -0.258596
siesta:   1100   -0.605085    0.341829   -0.622915
siesta:   1101   -0.262605    0.466312   -0.250363
siesta:   1102   -0.631419   -0.514395   -0.252462
siesta:   1103    0.672335   -0.014565   -0.197017
siesta:   1104   -0.203492   -1.039948    0.612810
siesta:   1105    0.999369    1.029287   -0.180279
siesta:   1106   -0.993728    0.354503   -0.320503
siesta:   1107   -0.392634   -0.229187    0.146017
siesta:   1108    0.146638   -0.339803    0.698493
siesta:   1109    0.294098   -0.760059   -0.679161
siesta:   1110    0.585627    0.497247    0.685731
siesta:   1111   -0.321798   -0.005315   -0.718122
siesta:   1112   -0.631109   -0.611686   -0.006307
siesta:   1113    0.054717    0.214931    0.880921
siesta:   1114   -0.054763    0.562104   -0.186142
siesta:   1115    0.299151    0.769409   -0.291905
siesta:   1116   -0.037723    0.022251   -1.459932
siesta:   1117    0.226688   -1.167237    1.004713
siesta:   1118   -0.156644    1.137779    0.242429
siesta:   1119   -0.554821   -0.408091   -0.556414
siesta:   1120   -0.153225   -0.374013    0.662367
siesta:   1121    0.006549   -0.420652   -0.544413
siesta:   1122    0.780716    0.429567    1.166883
siesta:   1123    0.286380    0.470139   -1.569479
siesta:   1124   -0.514581   -0.363326    0.144922
siesta:   1125   -0.470751   -0.502346    0.630758
siesta:   1126    0.121884    0.602000    0.611026
siesta:   1127    0.296958    0.061927    0.313178
siesta:   1128    0.603457    1.670048   -0.032175
siesta:   1129   -0.411617   -1.550123   -1.418792
siesta:   1130   -0.209547   -0.363245    0.793271
siesta:   1131   -0.203325    0.353981   -0.889159
siesta:   1132   -0.213741   -0.466039    0.105654
siesta:   1133   -0.233053   -0.051202   -0.659009
siesta:   1134    0.527594   -0.814521    1.365347
siesta:   1135    0.980400    1.634428   -0.417975
siesta:   1136   -0.548658   -0.109846   -0.519975
siesta:   1137   -0.649647   -0.587169   -0.249147
siesta:   1138   -0.148236   -0.166550    0.753751
siesta:   1139   -0.175205   -0.973972    0.002155
siesta:   1140    0.522950    1.232673    1.058550
siesta:   1141   -0.089919   -0.048055   -1.488095
siesta:   1142   -0.138200   -0.489396   -0.234534
siesta:   1143   -0.018872   -0.019516    0.913607
siesta:   1144   -0.007787    0.959605   -0.490849
siesta:   1145    0.171132    0.371956    0.555576
siesta:   1146    0.401700   -0.700937   -1.704384
siesta:   1147   -0.241808   -0.598898    1.355350
siesta:   1148   -0.323491    1.014419    0.436851
siesta:   1149    0.172698    0.352888   -0.986051
siesta:   1150   -0.553988   -0.910988   -0.198802
siesta:   1151   -0.016134   -1.104191   -0.456500
siesta:   1152   -0.681715   -0.890236    0.884071
siesta:   1153    1.246109    1.750259    0.276213
siesta:   1154    0.822900   -0.847868   -0.991296
siesta:   1155   -0.204863    0.348795    0.757719
siesta:   1156    0.302366    0.608116   -0.386043
siesta:   1157    1.033285   -0.603180   -0.210236
siesta:   1158    0.418432   -1.192786    0.145703
siesta:   1159   -1.360503    0.717312    0.264874
siesta:   1160   -0.016703   -0.510031   -0.618401
siesta:   1161   -0.874097   -0.263883    0.118324
siesta:   1162   -0.401923    1.162092   -0.559407
siesta:   1163   -0.394611    0.521824    0.708498
siesta:   1164    1.395109    1.251824   -0.157916
siesta:   1165    0.129163   -0.968220    0.060666
siesta:   1166   -0.863304    0.279988   -0.003483
siesta:   1167    1.431248    0.036363   -0.414957
siesta:   1168   -0.515687   -0.743218   -0.008883
siesta:   1169   -0.173566    0.470416    0.148114
siesta:   1170   -1.529749   -0.636616    0.403085
siesta:   1171    0.837124    1.309721    0.667857
siesta:   1172    0.145092   -0.247393   -0.203268
siesta:   1173    0.910165   -0.546681   -0.675141
siesta:   1174   -0.359319   -0.530059   -0.154955
siesta:   1175   -0.120981   -0.446205    0.410891
siesta:   1176   -0.833214    0.654396    0.275402
siesta:   1177    1.465169    0.666823    0.213003
siesta:   1178    0.751357    0.522762   -0.295765
siesta:   1179   -1.085542   -0.415672   -0.314412
siesta:   1180   -0.201525    0.289617    0.176046
siesta:   1181    0.387290   -0.011193    0.191544
siesta:   1182    0.532761   -1.567461    0.599899
siesta:   1183   -0.491382    0.069392   -0.799844
siesta:   1184   -0.239463   -0.181743   -0.201435
siesta:   1185   -0.394561    1.019598   -0.427976
siesta:   1186    0.529015    0.221319    0.560229
siesta:   1187   -0.029891   -0.570705   -0.049881
siesta:   1188    0.305368    1.030250   -0.367797
siesta:   1189   -0.037774   -0.684861    0.537692
siesta:   1190    0.006740    0.000538    0.281340
siesta:   1191    0.005101   -0.677273   -0.098973
siesta:   1192   -0.596476    0.050641   -0.452932
siesta:   1193    0.403792    0.316938    0.146667
siesta:   1194   -0.629126   -1.150059   -0.477304
siesta:   1195   -0.269853    2.016222    0.007756
siesta:   1196   -0.216003    0.632841    0.835341
siesta:   1197    0.569462   -0.318122    0.945823
siesta:   1198    0.103380   -0.811900   -0.612779
siesta:   1199   -0.335315    0.825163    0.042979
siesta:   1200    1.569587   -0.869555   -0.065143
siesta:   1201   -0.655896    0.365412   -0.868913
siesta:   1202    0.417221   -0.574039   -0.154733
siesta:   1203   -0.981463    0.472133    0.374707
siesta:   1204    0.393188   -0.119967    0.635440
siesta:   1205    0.490505   -1.312855    0.116352
siesta:   1206   -1.057453    0.623984   -1.371439
siesta:   1207    0.516544    0.651597    1.433826
siesta:   1208    0.446819   -0.628488   -0.122312
siesta:   1209   -0.278724   -0.591948   -0.808691
siesta:   1210    0.278591    0.608982   -0.364094
siesta:   1211    0.174452    0.083225    0.225327
siesta:   1212    0.524288    0.945682    0.400590
siesta:   1213   -0.546110   -1.125552    0.905288
siesta:   1214   -0.283141    0.832865    0.317421
siesta:   1215   -0.158149   -0.929683   -0.825289
siesta:   1216    0.240662    0.436203   -0.274748
siesta:   1217   -0.176011    0.841753    0.512730
siesta:   1218   -0.503137   -0.851369    0.515839
siesta:   1219    0.764438    0.307150   -1.022870
siesta:   1220   -0.638406    1.033930    0.208740
siesta:   1221   -0.563977   -0.187505    0.387217
siesta:   1222    0.675882   -0.941757    0.476218
siesta:   1223   -0.983883    0.346303   -0.144036
siesta:   1224    1.554836   -0.596230   -0.315167
siesta:   1225   -0.680161    0.917312   -1.141520
siesta:   1226    0.278167   -0.911721    0.137244
siesta:   1227   -0.716703    0.244336    0.225390
siesta:   1228    0.357930   -0.700264    0.851653
siesta:   1229    0.350472   -0.597145    0.108149
siesta:   1230    1.082320    0.024896   -1.578398
siesta:   1231   -0.888033    1.303372    0.741340
siesta:   1232    0.118237   -1.065746   -0.004828
siesta:   1233    0.179614    0.865866   -0.102907
siesta:   1234   -0.438087    0.033994    0.790523
siesta:   1235    0.095625    0.588152    0.203562
siesta:   1236   -0.623522   -1.423760    0.473544
siesta:   1237    0.676554   -0.042240   -1.601908
siesta:   1238   -0.129152   -0.676984   -0.224663
siesta:   1239    0.275794    1.084855    0.212107
siesta:   1240   -0.197234   -0.218445    0.689359
siesta:   1241   -0.779438   -0.802551    0.087215
siesta:   1242    0.306420    0.534460   -1.328615
siesta:   1243    0.558814    0.448313    1.431704
siesta:   1244   -0.860640   -0.164623    0.514753
siesta:   1245   -0.293104   -0.155528   -0.779716
siesta:   1246    1.076692    0.140012   -0.458661
siesta:   1247   -0.412278    1.767367   -0.846337
siesta:   1248    0.387932   -0.853980   -0.419933
siesta:   1249    0.669005    0.099544    0.922201
siesta:   1250   -0.962263   -0.328441    0.515045
siesta:   1251   -0.128953   -0.168583    0.134916
siesta:   1252   -0.829607   -0.001652    0.479975
siesta:   1253    0.749249   -0.016583    0.330797
siesta:   1254   -0.587324   -0.457735    1.054581
siesta:   1255   -0.248106    0.552551    0.535201
siesta:   1256    0.604011   -0.662808    0.935654
siesta:   1257    0.290279    0.557823    0.399850
siesta:   1258   -0.022117   -0.199184   -1.172263
siesta:   1259   -0.042138    0.666416   -0.651887
siesta:   1260   -0.357530   -0.018221   -0.561096
siesta:   1261    0.147568   -0.046823   -0.583854
siesta:   1262   -0.880905   -0.123221   -0.767807
siesta:   1263    0.479470   -0.155432   -0.567084
siesta:   1264   -0.134854   -0.055428    0.215713
siesta:   1265    0.206145   -0.230944    0.238711
siesta:   1266   -0.026372    0.208914    0.379107
siesta:   1267    0.108126   -0.960188    0.602336
siesta:   1268    0.725528    0.466117    0.446006
siesta:   1269   -0.717383    0.559023    0.701285
siesta:   1270   -0.439890    0.063709   -0.114108
siesta:   1271    0.586028    0.125662    0.079937
siesta:   1272   -0.205830   -0.415860   -0.057949
siesta:   1273   -0.073947    0.251172   -0.031179
siesta:   1274    0.220195   -0.289630   -0.057112
siesta:   1275    0.341788    0.665841    0.291392
siesta:   1276   -0.066431   -0.018089    0.030775
siesta:   1277    0.024398   -0.492870   -0.546590
siesta:   1278    0.231197    0.693949   -0.521995
siesta:   1279   -0.158624    0.027722   -0.581402
siesta:   1280    0.002269    0.128495   -0.521866
siesta:   1281   -0.654286   -0.427197   -0.743753
siesta:   1282    0.650768   -0.457179   -0.566234
siesta: ----------------------------------------
siesta:    Tot    0.189213    0.344286   -0.087484

siesta: Stress tensor (static) (eV/Ang**3):
siesta:     0.003361   -0.007657   -0.000574
siesta:    -0.007657    0.000425    0.003432
siesta:    -0.000574    0.003432   -0.002746

siesta: Cell volume =      13041.289483 Ang**3

siesta: Pressure (static):
siesta:                Solid            Molecule  Units
siesta:          -0.00000377         -0.00030297  Ry/Bohr**3
siesta:          -0.00034644         -0.02781769  eV/Ang**3
siesta:          -0.55506720        -44.56933997  kBar
(Free)E+ p_basis*V_orbitals  =     -374628.100851
(Free)Eharris+ p_basis*V_orbitals  =     -374628.099834

Optical: Performing optical calculation: 

Optical: Polarization type       = polarized   
Optical: Minimum of energy range =   0.0001 Ry 
Optical: Maximum of energy range =   7.3498 Ry 
Optical: Gaussian broadening     =   0.0037 Ry 
Optical: Scissor operator        =   0.0000 Ry 
Optical: Number of bands         =    13386
Optical: BZ mesh dimensions      =    1   1   1

Optical: electric field direction
Optical:      0.00000     0.00000     1.00000

Optical: Checking f-sum rule  0.879751
Optical: For insulators and closed shell systems
Optical: this number should be close to 1 if an enough
Optical: number of unoccupied bands have been included

* Maximum dynamic memory allocated : Node    0 =   311 MB
* Maximum dynamic memory allocated : Node    1 =   312 MB
* Maximum dynamic memory allocated : Node    2 =   309 MB
* Maximum dynamic memory allocated : Node    3 =   308 MB
* Maximum dynamic memory allocated : Node    4 =   307 MB
* Maximum dynamic memory allocated : Node    5 =   306 MB
* Maximum dynamic memory allocated : Node    6 =   309 MB
* Maximum dynamic memory allocated : Node    7 =   306 MB
* Maximum dynamic memory allocated : Node    8 =   308 MB
* Maximum dynamic memory allocated : Node    9 =   304 MB
* Maximum dynamic memory allocated : Node   10 =   310 MB
* Maximum dynamic memory allocated : Node   11 =   308 MB
* Maximum dynamic memory allocated : Node   12 =   311 MB
* Maximum dynamic memory allocated : Node   13 =   311 MB
* Maximum dynamic memory allocated : Node   14 =   308 MB
* Maximum dynamic memory allocated : Node   15 =   309 MB
* Maximum dynamic memory allocated : Node   16 =   308 MB
* Maximum dynamic memory allocated : Node   17 =   310 MB
* Maximum dynamic memory allocated : Node   18 =   310 MB
* Maximum dynamic memory allocated : Node   19 =   309 MB
* Maximum dynamic memory allocated : Node   20 =   308 MB
* Maximum dynamic memory allocated : Node   21 =   307 MB
* Maximum dynamic memory allocated : Node   22 =   307 MB
* Maximum dynamic memory allocated : Node   23 =   309 MB
* Maximum dynamic memory allocated : Node   24 =   312 MB
* Maximum dynamic memory allocated : Node   25 =   306 MB
* Maximum dynamic memory allocated : Node   26 =   312 MB
* Maximum dynamic memory allocated : Node   27 =   311 MB
* Maximum dynamic memory allocated : Node   28 =   310 MB
* Maximum dynamic memory allocated : Node   29 =   308 MB
* Maximum dynamic memory allocated : Node   30 =   312 MB
* Maximum dynamic memory allocated : Node   31 =   307 MB
* Maximum dynamic memory allocated : Node   32 =   309 MB
* Maximum dynamic memory allocated : Node   33 =   309 MB
* Maximum dynamic memory allocated : Node   34 =   312 MB
* Maximum dynamic memory allocated : Node   35 =   306 MB
* Maximum dynamic memory allocated : Node   36 =   311 MB
* Maximum dynamic memory allocated : Node   37 =   307 MB
* Maximum dynamic memory allocated : Node   38 =   310 MB
* Maximum dynamic memory allocated : Node   39 =   305 MB
* Maximum dynamic memory allocated : Node   40 =   314 MB
* Maximum dynamic memory allocated : Node   41 =   309 MB
* Maximum dynamic memory allocated : Node   42 =   308 MB
* Maximum dynamic memory allocated : Node   43 =   311 MB
* Maximum dynamic memory allocated : Node   44 =   308 MB
* Maximum dynamic memory allocated : Node   45 =   308 MB
* Maximum dynamic memory allocated : Node   46 =   295 MB
* Maximum dynamic memory allocated : Node   47 =   298 MB
* Maximum dynamic memory allocated : Node   48 =   298 MB
* Maximum dynamic memory allocated : Node   49 =   296 MB
* Maximum dynamic memory allocated : Node   50 =   296 MB
* Maximum dynamic memory allocated : Node   51 =   298 MB
* Maximum dynamic memory allocated : Node   52 =   296 MB
* Maximum dynamic memory allocated : Node   53 =   297 MB
* Maximum dynamic memory allocated : Node   54 =   296 MB
* Maximum dynamic memory allocated : Node   55 =   292 MB
* Maximum dynamic memory allocated : Node   56 =   296 MB
* Maximum dynamic memory allocated : Node   57 =   296 MB
* Maximum dynamic memory allocated : Node   58 =   297 MB
* Maximum dynamic memory allocated : Node   59 =   298 MB
* Maximum dynamic memory allocated : Node   60 =   298 MB
* Maximum dynamic memory allocated : Node   61 =   297 MB
* Maximum dynamic memory allocated : Node   62 =   295 MB
* Maximum dynamic memory allocated : Node   63 =   293 MB

* Maximum memory occured during rdiag                         

timer: CPU execution times:
timer:  Routine       Calls   Time/call    Tot.time        %
timer:  siesta            152224357.10052224357.100   100.00
timer:  Setup             1     241.211     241.211     0.00
timer:  bands             1       0.016       0.016     0.00
timer:  writewave         1       0.026       0.026     0.00
timer:  KSV_init          1       0.005       0.005     0.00
timer:  IterMD            1  373014.124  373014.124     0.71
timer:  hsparse           1      33.950      33.950     0.00
timer:  overlap           1     121.601     121.601     0.00
timer:  IterSCF          25   14794.520  369862.999     0.71
timer:  kinefsm           2      62.744     125.488     0.00
timer:  nlefsm            2     279.919     559.839     0.00
timer:  DHSCF            26    1390.640   36156.636     0.07
timer:  DHSCF1            1      50.710      50.710     0.00
timer:  DHSCF2            1    1235.745    1235.745     0.00
timer:  REORD           158       0.143      22.647     0.00
timer:  POISON           27      54.082    1460.217     0.00
timer:  DHSCF3           26    1313.489   34150.720     0.07
timer:  rhoofd           26     465.327   12098.512     0.02
timer:  cellXC           26      83.511    2171.283     0.00
timer:  vmat             26     619.977   16119.398     0.03
timer:  MolMec            2       0.159       0.318     0.00
timer:  diagon           25   11923.146  298078.653     0.57
timer:  r-eigvec         25   11349.338  283733.450     0.54
timer:  r-buildHS        25       3.266      81.648     0.00
timer:  rdiag            26   11347.622  295038.173     0.56
timer:  rdiag1           26     354.743    9223.313     0.02
timer:  rdiag2           26    2080.755   54099.622     0.10
timer:  rdiag3           26    7984.416  207594.820     0.40
timer:  rdiag4           26     851.129   22129.363     0.04
timer:  r-buildD         25     573.056   14326.397     0.03
timer:  DHSCF4            1     705.604     705.604     0.00
timer:  dfscf             1     636.223     636.223     0.00
timer:  overfsm           1       6.013       6.013     0.00
timer:  optical           151851000.67851851000.678    99.29
timer:  phirphiopt        1    1355.523    1355.523     0.00
timer:  transrate         151837967.14651837967.146    99.26
  

elaps: ELAPSED times:
elaps:  Routine       Calls   Time/call    Tot.time        %
elaps:  siesta            1  172127.438  172127.438   100.00
elaps:  Setup             1       3.699       3.699     0.00
elaps:  bands             1       0.000       0.000     0.00
elaps:  writewave         1       0.001       0.001     0.00
elaps:  KSV_init          1       0.000       0.000     0.00
elaps:  IterMD            1    5848.886    5848.886     3.40
elaps:  hsparse           1       0.527       0.527     0.00
elaps:  overlap           1       1.394       1.394     0.00
elaps:  IterSCF          25     231.923    5798.074     3.37
elaps:  kinefsm           2       0.727       1.454     0.00
elaps:  nlefsm            2       4.183       8.366     0.00
elaps:  DHSCF            26      21.765     565.878     0.33
elaps:  DHSCF1            1       0.767       0.767     0.00
elaps:  DHSCF2            1      19.397      19.397     0.01
elaps:  REORD           158       0.002       0.370     0.00
elaps:  POISON           27       0.833      22.504     0.01
elaps:  DHSCF3           26      20.512     533.322     0.31
elaps:  rhoofd           26       8.186     212.839     0.12
elaps:  cellXC           26       1.304      33.899     0.02
elaps:  vmat             26       9.670     251.420     0.15
elaps:  MolMec            2       0.002       0.005     0.00
elaps:  diagon           25     187.074    4676.848     2.72
elaps:  r-eigvec         25     178.056    4451.394     2.59
elaps:  r-buildHS        25       0.066       1.656     0.00
elaps:  rdiag            26     178.036    4628.940     2.69
elaps:  rdiag1           26       5.580     145.079     0.08
elaps:  rdiag2           26      32.756     851.664     0.49
elaps:  rdiag3           26     125.147    3253.811     1.89
elaps:  rdiag4           26      13.321     346.350     0.20
elaps:  r-buildD         25       9.007     225.163     0.13
elaps:  DHSCF4            1      12.160      12.160     0.01
elaps:  dfscf             1      10.978      10.978     0.01
elaps:  overfsm           1       0.096       0.096     0.00
elaps:  optical           1  166273.795  166273.795    96.60
elaps:  phirphiopt        1      20.634      20.634     0.01
elaps:  transrate         1  166068.595  166068.595    96.48
  
>> End of run:   6-MAY-2012  21:43:15
