Siesta Version:                                        siesta-3.2-pl-3
Architecture  : x86_64-unknown-linux-gnu--Intel
Compiler flags: mpif90 -O3 -xSSSE3 -axSSE4.2,SSE4.1 -ip
PARALLEL version
NetCDF support

* Running on   64 nodes in parallel
>> Start of run:  30-AUG-2014   7:11:33

                           ***********************       
                           *  WELCOME TO SIESTA  *       
                           ***********************       

reinit: Reading from standard input
************************** Dump of input data file ****************************
SystemName      optical
SystemLabel     optical
NumberOfAtoms   1282
NumberOfSpecies 4
MD.TypeOfRun    CG
MD.NumCGsteps   0
MD.ConstantVolume  .true.
SolutionMethod  diagon
XC.functional   GGA
XC.authors      PBE
PAO.BasisSize   DZP
DM.NumberPulay  7
DM.MixingWeight 0.1
DirectPhi       .true.
SaveMemory      .true.
MeshCutoff      500 Ry
MaxSCFiterations 200
UseSaveData     .true.
WriteMullikenPop 1
PAO.EnergyShift 0.001 Ry
WriteDM.NetCDF .false.
WriteDMHS.NetCDF .false.
OpticalCalculation      .true.
%block Optical.Mesh
 1 1 1
%endblock Optical.Mesh
Optical.PolarizationType  polarized
%block Optical.Vector
 0.0 1.0 0.0
%endblock Optical.Vector
Optical.Broaden         0.05 eV
Optical.EnergyMinimum   0.001 eV
Optical.EnergyMaximum   100.0 eV
%block ChemicalSpeciesLabel
 1   1   H
 2   6   C
 3   9   F
 4  47   Ag
%endblock ChemicalSpeciesLabel
LatticeConstant 1.0 Ang
%block LatticeParameters
  22.534   24.472   23.649   90.0 90.0 90.0
%endblock LatticeParameters
AtomicCoordinatesFormat Ang
%block AtomicCoordinatesAndAtomicSpecies < struct.coor
%endblock AtomicCoordinatesAndAtomicSpecies
************************** End of input data file *****************************

reinit: -----------------------------------------------------------------------
reinit: System Name: optical
reinit: -----------------------------------------------------------------------
reinit: System Label: optical                                                     
reinit: -----------------------------------------------------------------------

initatom: Reading input for the pseudopotentials and atomic orbitals ----------
 Species number:            1  Label: H Atomic number:           1
 Species number:            2  Label: C Atomic number:           6
 Species number:            3  Label: F Atomic number:           9
 Species number:            4  Label: Ag Atomic number:          47
Ground state valence configuration:   1s01
Reading pseudopotential information in formatted form from H.psf

Valence configuration for pseudopotential generation:
1s( 1.00) rc: 1.33
2p( 0.00) rc: 1.33
3d( 0.00) rc: 0.37
4f( 0.00) rc: 1.33
Ground state valence configuration:   2s02  2p02
Reading pseudopotential information in formatted form from C.psf

Valence configuration for pseudopotential generation:
2s( 2.00) rc: 1.56
2p( 2.00) rc: 1.56
3d( 0.00) rc: 1.56
4f( 0.00) rc: 1.56
Ground state valence configuration:   2s02  2p05
Reading pseudopotential information in formatted form from F.psf

Valence configuration for pseudopotential generation:
2s( 2.00) rc: 1.41
2p( 5.00) rc: 1.41
3d( 0.00) rc: 1.41
4f( 0.00) rc: 1.41
Ground state valence configuration:   5s01  4d10
Reading pseudopotential information in formatted form from Ag.psf

Valence configuration for pseudopotential generation:
5s( 1.00) rc: 2.52
5p( 0.00) rc: 2.72
4d(10.00) rc: 2.52
4f( 0.00) rc: 2.52
For H, standard SIESTA heuristics set lmxkb to 2
 (one more than the basis l, including polarization orbitals).
Use PS.lmax or PS.KBprojectors blocks to override.
For C, standard SIESTA heuristics set lmxkb to 3
 (one more than the basis l, including polarization orbitals).
Use PS.lmax or PS.KBprojectors blocks to override.
For F, standard SIESTA heuristics set lmxkb to 3
 (one more than the basis l, including polarization orbitals).
Use PS.lmax or PS.KBprojectors blocks to override.
For Ag, standard SIESTA heuristics set lmxkb to 3
 (one more than the basis l, including polarization orbitals).
Use PS.lmax or PS.KBprojectors blocks to override.

<basis_specs>
===============================================================================
H                    Z=   1    Mass=  1.0100        Charge= 0.17977+309
Lmxo=0 Lmxkb= 2    BasisType=split      Semic=F
L=0  Nsemic=0  Cnfigmx=1
          n=1  nzeta=2  polorb=1
            splnorm:   0.15000    
               vcte:    0.0000    
               rinn:    0.0000    
                rcs:    0.0000      0.0000    
            lambdas:   1.00000     1.00000    
-------------------------------------------------------------------------------
L=0  Nkbl=1  erefs: 0.17977+309
L=1  Nkbl=1  erefs: 0.17977+309
L=2  Nkbl=1  erefs: 0.17977+309
===============================================================================
</basis_specs>

atom: Called for H                     (Z =   1)

read_vps: Pseudopotential generation method:
read_vps: ATM 3.2.2 Troullier-Martins                       
Total valence charge:    1.00000

xc_check: Exchange-correlation functional:
xc_check: GGA Perdew, Burke & Ernzerhof 1996
V l=0 = -2*Zval/r beyond r=  1.2656
V l=1 = -2*Zval/r beyond r=  1.2498
V l=2 = -2*Zval/r beyond r=  0.3563
All V_l potentials equal beyond r=  1.2656
This should be close to max(r_c) in ps generation
All pots = -2*Zval/r beyond r=  1.2656

VLOCAL1: 99.0% of the norm of Vloc inside     27.100 Ry
VLOCAL1: 99.9% of the norm of Vloc inside     61.762 Ry
atom: Maximum radius for 4*pi*r*r*local-pseudopot. charge    1.48935
atom: Maximum radius for r*vlocal+2*Zval:    1.24984
GHOST: No ghost state for L =  0
GHOST: No ghost state for L =  1
GHOST: No ghost state for L =  2

KBgen: Kleinman-Bylander projectors: 
   l= 0   rc=  1.398961   el= -0.477209   Ekb= -2.001853   kbcos= -0.352188
   l= 1   rc=  1.470814   el=  0.001006   Ekb= -0.423408   kbcos= -0.024395
   l= 2   rc=  1.489346   el=  0.001895   Ekb= -0.481957   kbcos= -0.001574

KBgen: Total number of  Kleinman-Bylander projectors:    9
atom: -------------------------------------------------------------------------

atom: SANKEY-TYPE ORBITALS:
atom: Selected multiple-zeta basis: split     

SPLIT: Orbitals with angular momentum L= 0

SPLIT: Basis orbitals for state 1s

SPLIT: PAO cut-off radius determined from an
SPLIT: energy shift=  0.001000 Ry

   izeta = 1
                 lambda =    1.000000
                     rc =    7.026209
                 energy =   -0.476258
                kinetic =    0.873901
    potential(screened) =   -1.350160
       potential(ionic) =   -1.868508

   izeta = 2
                 rmatch =    4.103729
              splitnorm =    0.150000
                 energy =   -0.388153
                kinetic =    1.411813
    potential(screened) =   -1.799966
       potential(ionic) =   -2.346436

POLgen: Perturbative polarization orbital with L=  1

POLgen: Polarization orbital for state 1s

   izeta = 1
                     rc =    7.026209
                 energy =    0.513491
                kinetic =    1.100165
    potential(screened) =   -0.586674
       potential(ionic) =   -1.048593
atom: Total number of Sankey-type orbitals:  5

atm_pop: Valence configuration (for local Pseudopot. screening):
 1s( 1.00)                                                            
Vna: chval, zval:    1.00000   1.00000

Vna:  Cut-off radius for the neutral-atom potential:   7.026209

atom: _________________________________________________________________________

<basis_specs>
===============================================================================
C                    Z=   6    Mass=  12.010        Charge= 0.17977+309
Lmxo=1 Lmxkb= 3    BasisType=split      Semic=F
L=0  Nsemic=0  Cnfigmx=2
          n=1  nzeta=2  polorb=0
            splnorm:   0.15000    
               vcte:    0.0000    
               rinn:    0.0000    
                rcs:    0.0000      0.0000    
            lambdas:   1.00000     1.00000    
L=1  Nsemic=0  Cnfigmx=2
          n=1  nzeta=2  polorb=1
            splnorm:   0.15000    
               vcte:    0.0000    
               rinn:    0.0000    
                rcs:    0.0000      0.0000    
            lambdas:   1.00000     1.00000    
-------------------------------------------------------------------------------
L=0  Nkbl=1  erefs: 0.17977+309
L=1  Nkbl=1  erefs: 0.17977+309
L=2  Nkbl=1  erefs: 0.17977+309
L=3  Nkbl=1  erefs: 0.17977+309
===============================================================================
</basis_specs>

atom: Called for C                     (Z =   6)

read_vps: Pseudopotential generation method:
read_vps: ATM 3.2.2 Troullier-Martins                       
Total valence charge:    4.00000

xc_check: Exchange-correlation functional:
xc_check: GGA Perdew, Burke & Ernzerhof 1996
V l=0 = -2*Zval/r beyond r=  1.5227
V l=1 = -2*Zval/r beyond r=  1.5227
V l=2 = -2*Zval/r beyond r=  1.5227
V l=3 = -2*Zval/r beyond r=  1.5227
All V_l potentials equal beyond r=  1.4851
This should be close to max(r_c) in ps generation
All pots = -2*Zval/r beyond r=  1.5227

VLOCAL1: 99.0% of the norm of Vloc inside     19.682 Ry
VLOCAL1: 99.9% of the norm of Vloc inside     44.856 Ry
atom: Maximum radius for 4*pi*r*r*local-pseudopot. charge    1.79142
atom: Maximum radius for r*vlocal+2*Zval:    1.54183
GHOST: No ghost state for L =  0
GHOST: No ghost state for L =  1
GHOST: No ghost state for L =  2
GHOST: No ghost state for L =  3

KBgen: Kleinman-Bylander projectors: 
   l= 0   rc=  1.661951   el= -1.010689   Ekb=  5.289847   kbcos=  0.316429
   l= 1   rc=  1.661951   el= -0.388490   Ekb= -4.102504   kbcos= -0.351025
   l= 2   rc=  1.747182   el=  0.001971   Ekb= -1.006005   kbcos= -0.008530
   l= 3   rc=  1.791422   el=  0.003065   Ekb= -0.421399   kbcos= -0.001072

KBgen: Total number of  Kleinman-Bylander projectors:   16
atom: -------------------------------------------------------------------------

atom: SANKEY-TYPE ORBITALS:
atom: Selected multiple-zeta basis: split     

SPLIT: Orbitals with angular momentum L= 0

SPLIT: Basis orbitals for state 2s

SPLIT: PAO cut-off radius determined from an
SPLIT: energy shift=  0.001000 Ry

   izeta = 1
                 lambda =    1.000000
                     rc =    5.801806
                 energy =   -1.009895
                kinetic =    0.828418
    potential(screened) =   -1.838313
       potential(ionic) =   -5.395016

   izeta = 2
                 rmatch =    3.475094
              splitnorm =    0.150000
                 energy =   -0.868818
                kinetic =    1.308521
    potential(screened) =   -2.177339
       potential(ionic) =   -5.999546

SPLIT: Orbitals with angular momentum L= 1

SPLIT: Basis orbitals for state 2p

SPLIT: PAO cut-off radius determined from an
SPLIT: energy shift=  0.001000 Ry

   izeta = 1
                 lambda =    1.000000
                     rc =    7.449784
                 energy =   -0.387666
                kinetic =    2.318076
    potential(screened) =   -2.705742
       potential(ionic) =   -6.097636

   izeta = 2
                 rmatch =    3.792903
              splitnorm =    0.150000
                 energy =   -0.276721
                kinetic =    3.399803
    potential(screened) =   -3.676524
       potential(ionic) =   -7.455899

POLgen: Perturbative polarization orbital with L=  2

POLgen: Polarization orbital for state 2p

   izeta = 1
                     rc =    7.449784
                 energy =    0.929908
                kinetic =    1.970732
    potential(screened) =   -1.040824
       potential(ionic) =   -3.695745
atom: Total number of Sankey-type orbitals: 13

atm_pop: Valence configuration (for local Pseudopot. screening):
 2s( 2.00)                                                            
 2p( 2.00)                                                            
Vna: chval, zval:    4.00000   4.00000

Vna:  Cut-off radius for the neutral-atom potential:   7.449784

atom: _________________________________________________________________________

<basis_specs>
===============================================================================
F                    Z=   9    Mass=  19.000        Charge= 0.17977+309
Lmxo=1 Lmxkb= 3    BasisType=split      Semic=F
L=0  Nsemic=0  Cnfigmx=2
          n=1  nzeta=2  polorb=0
            splnorm:   0.15000    
               vcte:    0.0000    
               rinn:    0.0000    
                rcs:    0.0000      0.0000    
            lambdas:   1.00000     1.00000    
L=1  Nsemic=0  Cnfigmx=2
          n=1  nzeta=2  polorb=1
            splnorm:   0.15000    
               vcte:    0.0000    
               rinn:    0.0000    
                rcs:    0.0000      0.0000    
            lambdas:   1.00000     1.00000    
-------------------------------------------------------------------------------
L=0  Nkbl=1  erefs: 0.17977+309
L=1  Nkbl=1  erefs: 0.17977+309
L=2  Nkbl=1  erefs: 0.17977+309
L=3  Nkbl=1  erefs: 0.17977+309
===============================================================================
</basis_specs>

atom: Called for F                     (Z =   9)

read_vps: Pseudopotential generation method:
read_vps: ATM 3.2.2 Troullier-Martins                       
Total valence charge:    7.00000

xc_check: Exchange-correlation functional:
xc_check: GGA Perdew, Burke & Ernzerhof 1996
V l=0 = -2*Zval/r beyond r=  1.3199
V l=1 = -2*Zval/r beyond r=  1.3199
V l=2 = -2*Zval/r beyond r=  1.3199
V l=3 = -2*Zval/r beyond r=  1.3199
All V_l potentials equal beyond r=  1.3199
This should be close to max(r_c) in ps generation
All pots = -2*Zval/r beyond r=  1.3199

VLOCAL1: 99.0% of the norm of Vloc inside     24.916 Ry
VLOCAL1: 99.9% of the norm of Vloc inside     56.784 Ry
atom: Maximum radius for 4*pi*r*r*local-pseudopot. charge    1.61221
atom: Maximum radius for r*vlocal+2*Zval:    1.38760
GHOST: No ghost state for L =  0
GHOST: No ghost state for L =  1
GHOST: No ghost state for L =  2
GHOST: No ghost state for L =  3

KBgen: Kleinman-Bylander projectors: 
   l= 0   rc=  1.495695   el= -2.197581   Ekb=  5.601452   kbcos=  0.238748
   l= 1   rc=  1.458760   el= -0.816694   Ekb= -9.171639   kbcos= -0.518972
   l= 2   rc=  1.552860   el=  0.001997   Ekb= -1.845583   kbcos= -0.004774
   l= 3   rc=  1.592177   el=  0.003102   Ekb= -0.701684   kbcos= -0.000616

KBgen: Total number of  Kleinman-Bylander projectors:   16
atom: -------------------------------------------------------------------------

atom: SANKEY-TYPE ORBITALS:
atom: Selected multiple-zeta basis: split     

SPLIT: Orbitals with angular momentum L= 0

SPLIT: Basis orbitals for state 2s

SPLIT: PAO cut-off radius determined from an
SPLIT: energy shift=  0.001000 Ry

   izeta = 1
                 lambda =    1.000000
                     rc =    4.066195
                 energy =   -2.196755
                kinetic =    1.966455
    potential(screened) =   -4.163210
       potential(ionic) =  -14.868929

   izeta = 2
                 rmatch =    2.259523
              splitnorm =    0.150000
                 energy =   -1.883468
                kinetic =    3.053766
    potential(screened) =   -4.937234
       potential(ionic) =  -16.545925

SPLIT: Orbitals with angular momentum L= 1

SPLIT: Basis orbitals for state 2p

SPLIT: PAO cut-off radius determined from an
SPLIT: energy shift=  0.001000 Ry

   izeta = 1
                 lambda =    1.000000
                     rc =    5.221176
                 energy =   -0.815825
                kinetic =    5.800203
    potential(screened) =   -6.616028
       potential(ionic) =  -16.867051

   izeta = 2
                 rmatch =    2.375385
              splitnorm =    0.150000
                 energy =   -0.513701
                kinetic =    8.562067
    potential(screened) =   -9.075768
       potential(ionic) =  -20.580843

POLgen: Perturbative polarization orbital with L=  2

POLgen: Polarization orbital for state 2p

   izeta = 1
                     rc =    5.221176
                 energy =    2.534714
                kinetic =    5.071044
    potential(screened) =   -2.536330
       potential(ionic) =  -10.352162
atom: Total number of Sankey-type orbitals: 13

atm_pop: Valence configuration (for local Pseudopot. screening):
 2s( 2.00)                                                            
 2p( 5.00)                                                            
Vna: chval, zval:    7.00000   7.00000

Vna:  Cut-off radius for the neutral-atom potential:   5.221176

atom: _________________________________________________________________________

<basis_specs>
===============================================================================
Ag                   Z=  47    Mass=  107.87        Charge= 0.17977+309
Lmxo=2 Lmxkb= 3    BasisType=split      Semic=F
L=0  Nsemic=0  Cnfigmx=5
          n=1  nzeta=2  polorb=1
            splnorm:   0.15000    
               vcte:    0.0000    
               rinn:    0.0000    
                rcs:    0.0000      0.0000    
            lambdas:   1.00000     1.00000    
L=1  Nsemic=0  Cnfigmx=5
L=2  Nsemic=0  Cnfigmx=4
          n=1  nzeta=2  polorb=0
            splnorm:   0.15000    
               vcte:    0.0000    
               rinn:    0.0000    
                rcs:    0.0000      0.0000    
            lambdas:   1.00000     1.00000    
-------------------------------------------------------------------------------
L=0  Nkbl=1  erefs: 0.17977+309
L=1  Nkbl=1  erefs: 0.17977+309
L=2  Nkbl=1  erefs: 0.17977+309
L=3  Nkbl=1  erefs: 0.17977+309
===============================================================================
</basis_specs>

atom: Called for Ag                    (Z =  47)

read_vps: Pseudopotential generation method:
read_vps: ATM 3.2.2 Troullier-Martins                       
Total valence charge:   11.00000

xc_check: Exchange-correlation functional:
xc_check: GGA Perdew, Burke & Ernzerhof 1996
V l=0 = -2*Zval/r beyond r=  2.4592
V l=1 = -2*Zval/r beyond r=  2.6507
V l=2 = -2*Zval/r beyond r=  2.4592
V l=3 = -2*Zval/r beyond r=  2.4592
All V_l potentials equal beyond r=  2.6507
This should be close to max(r_c) in ps generation
All pots = -2*Zval/r beyond r=  2.6507

VLOCAL1: 99.0% of the norm of Vloc inside      6.178 Ry
VLOCAL1: 99.9% of the norm of Vloc inside     14.079 Ry
atom: Maximum radius for 4*pi*r*r*local-pseudopot. charge    3.19739
atom: Maximum radius for r*vlocal+2*Zval:    2.82168
GHOST: No ghost state for L =  0
GHOST: No ghost state for L =  1
GHOST: No ghost state for L =  2
GHOST: No ghost state for L =  3

KBgen: Kleinman-Bylander projectors: 
   l= 0   rc=  2.966357   el= -0.323666   Ekb=  3.565490   kbcos=  0.247453
   l= 1   rc=  3.003670   el= -0.054265   Ekb=  1.619308   kbcos=  0.223076
   l= 2   rc=  2.786631   el= -0.547066   Ekb= -7.840816   kbcos= -0.714112
   l= 3   rc=  3.079709   el=  0.002953   Ekb= -2.732950   kbcos= -0.012571

KBgen: Total number of  Kleinman-Bylander projectors:   16
atom: -------------------------------------------------------------------------

atom: SANKEY-TYPE ORBITALS:
atom: Selected multiple-zeta basis: split     

SPLIT: Orbitals with angular momentum L= 0

SPLIT: Basis orbitals for state 5s

SPLIT: PAO cut-off radius determined from an
SPLIT: energy shift=  0.001000 Ry

   izeta = 1
                 lambda =    1.000000
                     rc =    9.486283
                 energy =   -0.322725
                kinetic =    0.270535
    potential(screened) =   -0.593260
       potential(ionic) =   -7.743453

   izeta = 2
                 rmatch =    6.768941
              splitnorm =    0.150000
                 energy =   -0.277703
                kinetic =    0.444695
    potential(screened) =   -0.722398
       potential(ionic) =   -8.538416

SPLIT: Orbitals with angular momentum L= 2

SPLIT: Basis orbitals for state 4d

SPLIT: PAO cut-off radius determined from an
SPLIT: energy shift=  0.001000 Ry

   izeta = 1
                 lambda =    1.000000
                     rc =    5.899358
                 energy =   -0.546288
                kinetic =    5.940648
    potential(screened) =   -6.486936
       potential(ionic) =  -18.280755

   izeta = 2
                 rmatch =    2.650723
              splitnorm =    0.150000
                 energy =   -0.238526
                kinetic =    8.222011
    potential(screened) =   -8.460537
       potential(ionic) =  -21.296963

POLgen: Perturbative polarization orbital with L=  1

POLgen: Polarization orbital for state 5s

   izeta = 1
                     rc =    9.486283
                 energy =   -0.053026
                kinetic =    0.478302
    potential(screened) =   -0.531328
       potential(ionic) =   -7.012902
atom: Total number of Sankey-type orbitals: 15

atm_pop: Valence configuration (for local Pseudopot. screening):
 5s( 1.00)                                                            
 5p( 0.00)                                                            
 4d(10.00)                                                            
Vna: chval, zval:   11.00000  11.00000

Vna:  Cut-off radius for the neutral-atom potential:   9.486283

atom: _________________________________________________________________________

prinput: Basis input ----------------------------------------------------------

PAO.BasisType split     

%block ChemicalSpeciesLabel
    1    1 H                       # Species index, atomic number, species label
    2    6 C                       # Species index, atomic number, species label
    3    9 F                       # Species index, atomic number, species label
    4   47 Ag                      # Species index, atomic number, species label
%endblock ChemicalSpeciesLabel

%block PAO.Basis                 # Define Basis set
H                     1                    # Species label, number of l-shells
 n=1   0   2 P   1                   # n, l, Nzeta, Polarization, NzetaPol
   7.026      4.104   
   1.000      1.000   
C                     2                    # Species label, number of l-shells
 n=2   0   2                         # n, l, Nzeta 
   5.802      3.475   
   1.000      1.000   
 n=2   1   2 P   1                   # n, l, Nzeta, Polarization, NzetaPol
   7.450      3.793   
   1.000      1.000   
F                     2                    # Species label, number of l-shells
 n=2   0   2                         # n, l, Nzeta 
   4.066      2.260   
   1.000      1.000   
 n=2   1   2 P   1                   # n, l, Nzeta, Polarization, NzetaPol
   5.221      2.375   
   1.000      1.000   
Ag                    2                    # Species label, number of l-shells
 n=5   0   2 P   1                   # n, l, Nzeta, Polarization, NzetaPol
   9.486      6.769   
   1.000      1.000   
 n=4   2   2                         # n, l, Nzeta 
   5.899      2.651   
   1.000      1.000   
%endblock PAO.Basis

prinput: ----------------------------------------------------------------------

Dumping basis to NetCDF file H.ion.nc
Dumping basis to NetCDF file C.ion.nc
Dumping basis to NetCDF file F.ion.nc
Dumping basis to NetCDF file Ag.ion.nc
coor:   Atomic-coordinates input format  =     Cartesian coordinates
coor:                                          (in Angstroms)

siesta: WARNING: XV file not found

siesta: Atomic coordinates (Bohr) and species
siesta:     13.64572  29.04510  37.04243  2        1
siesta:     15.16695  28.13992  35.97851  1        2
siesta:     12.23976  29.70462  35.67804  1        3
siesta:     12.78967  27.69584  38.37846  1        4
siesta:     14.66617  31.25230  38.59578  2        5
siesta:     14.78333  30.42838  41.02219  3        6
siesta:     17.11715  31.58867  37.88713  3        7
siesta:     13.29801  33.85635  38.59578  2        8
siesta:     11.74843  33.75808  37.23707  1        9
siesta:     12.47598  34.06044  40.47795  1       10
siesta:     14.76066  36.36779  38.11579  2       11
siesta:     13.01077  38.22729  38.00997  3       12
siesta:     16.08536  36.91770  40.21717  3       13
siesta:     16.59558  36.75519  35.88213  2       14
siesta:     16.78833  38.77720  35.64592  1       15
siesta:     18.45129  36.02764  36.43015  1       16
siesta:     16.00410  35.70828  33.19305  2       17
siesta:     13.50021  35.16215  33.04754  3       18
siesta:     16.33669  37.66982  31.56411  3       19
siesta:     17.44029  33.40659  32.11969  2       20
siesta:     18.80845  32.78676  33.51809  1       21
siesta:     16.04378  31.90048  31.87969  1       22
siesta:     18.90861  33.58612  29.60635  2       23
siesta:     19.67773  31.21640  28.98274  3       24
siesta:     17.13037  34.10768  27.80166  3       25
siesta:     21.16305  35.43427  29.27187  2       26
siesta:     21.78288  35.27553  27.30466  1       27
siesta:     20.39582  37.34100  29.52131  1       28
siesta:     23.51198  35.24152  30.98963  2       29
siesta:     24.97463  37.29754  30.45484  3       30
siesta:     22.79200  35.65159  33.41226  3       31
siesta:     25.24675  32.91337  30.90270  2       32
siesta:     24.89904  31.98174  29.08290  1       33
siesta:     27.20073  33.58990  30.87625  1       34
siesta:     25.02376  30.79877  32.92471  2       35
siesta:     22.58980  29.91249  32.94928  3       36
siesta:     26.39193  28.82589  32.08378  3       37
siesta:     25.79666  31.26364  35.68749  2       38
siesta:     25.78721  33.30644  35.98985  1       39
siesta:     24.29811  30.44917  36.83834  1       40
siesta:     28.35535  30.30555  36.75519  2       41
siesta:     30.19217  31.24285  35.23585  3       42
siesta:     28.72574  31.51686  39.00018  3       43
siesta:     28.90526  27.47852  37.22951  2       44
siesta:     28.54810  26.45996  35.47206  1       45
siesta:     30.92160  27.31789  37.66415  1       46
siesta:     27.52198  26.08012  39.37057  2       47
siesta:     27.69962  27.43694  41.57777  3       48
siesta:     24.98786  26.11036  38.79042  3       49
siesta:     28.16071  23.30978  40.04142  2       50
siesta:     27.21207  22.86947  41.81966  1       51
siesta:     27.32545  22.15516  38.53342  1       52
siesta:     30.89703  22.39137  40.34378  2       53
siesta:     30.74775  20.03677  41.37557  3       54
siesta:     31.82678  22.02855  38.00241  3       55
siesta:     32.85101  23.89749  41.89336  2       56
siesta:     34.07933  24.83479  40.54409  1       57
siesta:     31.83812  25.38281  42.89302  1       58
siesta:     34.59712  22.56523  43.81521  2       59
siesta:     35.73662  20.60558  42.62279  3       60
siesta:     36.53031  24.21496  44.35189  3       61
siesta:     33.52942  21.64871   1.68942  2       62
siesta:     31.58490  21.02888   1.39651  1       63
siesta:     34.61980  19.99520   2.26956  1       64
siesta:     33.44061  23.53466   3.90796  2       65
siesta:     32.30110  25.71540   3.09537  3       66
siesta:     31.76253  22.57846   5.60304  3       67
siesta:     35.89536  24.27921   5.31580  2       68
siesta:     37.26730  22.76554   4.92841  1       69
siesta:     36.54921  26.00642   4.45220  1       70
siesta:     35.88402  24.73652   8.19575  2       71
siesta:     38.04209  26.00831   8.75699  3       72
siesta:     34.03776  26.46751   8.64928  3       73
siesta:     35.60623  22.62003  10.18374  2       74
siesta:     35.69694  23.54978  12.02811  1       75
siesta:     33.68249  21.84902  10.01555  1       76
siesta:     37.45061  20.37504  10.28011  2       77
siesta:     38.95483  20.35425   8.17496  3       78
siesta:     39.12868  20.83802  12.17740  3       79
siesta:     36.43771  17.67651  10.70908  2       80
siesta:     38.05343  16.43306  10.69963  1       81
siesta:     35.65726  17.65572  12.62338  1       82
siesta:     34.40248  16.58424   8.92140  2       83
siesta:     32.07622  17.20596   9.86437  3       84
siesta:     34.48185  17.84847   6.69341  3       85
siesta:     34.34579  13.72887   8.32992  2       86
siesta:     34.62547  12.74243  10.11949  1       87
siesta:     32.42204  13.31313   7.69497  1       88
siesta:     36.17315  12.56857   6.40050  2       89
siesta:     38.55610  13.12415   7.16018  3       90
siesta:     35.99174   9.99099   6.68774  3       91
siesta:     35.94261  13.22809   3.55269  2       92
siesta:     35.42860  11.47631   2.58326  1       93
siesta:     34.34390  14.51499   3.35427  1       94
siesta:     38.18949  14.41862   2.09949  2       95
siesta:     37.41281  14.93640  44.38779  3       96
siesta:     38.62035  16.77322   3.04246  3       97
siesta:     40.78409  13.12226   1.92752  2       98
siesta:     41.76863  13.91973   0.30803  1       99
siesta:     41.82721  13.67217   3.61316  1      100
siesta:     41.05810  10.24610   1.65918  2      101
siesta:      1.00533   9.73209   1.63083  3      102
siesta:     40.24740   9.14250   3.85693  3      103
siesta:     39.91859   8.79101  44.07599  2      104
siesta:     38.97373  10.19508  42.89491  1      105
siesta:     41.53998   8.04457  43.03286  1      106
siesta:     38.08367   6.53090  44.38213  2      107
siesta:     39.43671   4.61849   0.83337  3      108
siesta:     36.28087   7.12805   1.42107  3      109
siesta:     36.72117   5.38950  42.06154  2      110
siesta:     38.06477   5.35927  40.52330  1      111
siesta:     36.30732   3.44686  42.53019  1      112
siesta:     34.23051   6.56491  41.06943  2      113
siesta:     34.47429   9.11982  41.19794  3      114
siesta:     34.11335   5.97721  38.56366  3      115
siesta:     31.67182   5.88083  42.27319  2      116
siesta:     32.02520   5.35738  44.24418  1      117
siesta:     30.53232   7.61560  42.29209  1      118
siesta:     30.02587   3.80024  41.08455  2      119
siesta:     28.03599   3.48088  42.67759  3      120
siesta:     28.97707   4.80558  38.95861  3      121
siesta:     31.06711   1.16029  40.39669  2      122
siesta:     29.55533   0.17952  39.41970  1      123
siesta:     32.60913   1.47777  39.04365  1      124
siesta:     32.00252  45.55943  42.48295  2      125
siesta:     32.96629   0.65951  44.43693  3      126
siesta:     29.97863  44.36134  43.53175  3      127
siesta:     33.87524  43.42025  41.75729  2      128
siesta:     33.56344  41.87257  43.08010  1      129
siesta:     33.31022  42.76641  39.89024  1      130
siesta:     36.77220  43.87946  41.61557  2      131
siesta:     37.17471  45.56132  39.70316  3      132
siesta:     37.48084  45.20227  43.71505  3      133
siesta:     38.67515  41.70249  41.36612  2      134
siesta:     40.51763  42.62279  41.31510  1      135
siesta:     38.57688  40.57999  43.08199  1      136
siesta:     38.64114  39.85056  39.10979  2      137
siesta:     37.19171  40.91070  37.26352  3      138
siesta:     41.05999  39.83544  38.16870  3      139
siesta:     37.80588  37.06321  39.44805  2      140
siesta:     37.89469  36.15614  37.60556  1      141
siesta:     39.18727  36.17693  40.68015  1      142
siesta:     35.17160  36.48496  40.55165  2      143
siesta:     35.04498  37.40336  42.95349  3      144
siesta:     33.46328  37.90225  39.25719  3      145
siesta:     34.14359  33.75241  40.63858  2      146
siesta:     32.09701  33.84690  40.76330  1      147
siesta:     34.60279  32.89637  38.83767  1      148
siesta:     35.06199  31.89103  42.68137  2      149
siesta:     35.64592  29.67627  41.49084  3      150
siesta:     37.27108  32.78109  43.60734  3      151
siesta:     33.37447  31.16727   0.25322  2      152
siesta:     31.86835  29.95973  44.20638  1      153
siesta:     34.55933  30.03343   1.49099  1      154
siesta:     32.08567  33.18549   1.88973  2      155
siesta:     30.89892  34.80688   0.30992  3      156
siesta:     30.19028  32.00252   3.13317  3      157
siesta:     33.53698  34.79554   3.84370  2      158
siesta:     34.88058  35.91237   2.79869  1      159
siesta:     32.16504  36.06922   4.67329  1      160
siesta:     34.97129  33.55777   6.04146  2      161
siesta:     33.40848  31.86457   7.13183  3      162
siesta:     36.87613  32.15559   5.07770  3      163
siesta:     36.04654  35.27553   8.13905  2      164
siesta:     37.47139  36.48685   7.27734  1      165
siesta:     34.50641  36.45283   8.80046  1      166
siesta:     37.21817  34.10390  10.56735  2      167
siesta:     35.34545  32.85479  11.82402  3      168
siesta:     38.81688  32.21228   9.83603  3      169
siesta:     38.53531  35.77631  12.56668  2      170
siesta:     37.64903  37.63202  12.51944  1      171
siesta:     38.09500  34.95806  14.41106  1      172
siesta:     41.41903  36.20339  12.46464  2      173
siesta:     42.54342  33.90548  12.64038  3      174
siesta:     42.02942  37.04432  10.10626  3      175
siesta:      0.10393  37.92871  14.43940  2      176
siesta:     41.29998  38.26697  15.92662  1      177
siesta:      1.61194  36.82511  15.31246  1      178
siesta:      1.16596  40.53842  13.70997  2      179
siesta:     42.01997  41.71383  12.20575  3      180
siesta:      1.11494  41.94438  15.82079  3      181
siesta:      3.84937  40.80298  12.61204  2      182
siesta:      5.13817  41.14313  14.21075  1      183
siesta:      4.32181  38.97184  11.82780  1      184
siesta:      4.42196  42.75129  10.54279  2      185
siesta:      6.68774  42.12957   9.52044  3      186
siesta:      2.77412  42.32043   8.62660  3      187
siesta:      4.37283  45.60856  11.05301  2      188
siesta:      3.47143   0.24566   9.41840  1      189
siesta:      3.09537  45.88446  12.65172  1      190
siesta:      6.85215   0.84660  11.61804  2      191
siesta:      6.20775   3.04246  12.68952  3      192
siesta:      8.08236  45.82966  13.49454  3      193
siesta:      8.80802   1.51934   9.55446  2      194
siesta:      9.71131   3.27112  10.20075  1      195
siesta:     10.24799   0.03402   9.61115  1      196
siesta:      7.96142   1.95020   6.76333  2      197
siesta:      7.25844  45.91280   5.80713  3      198
siesta:      5.78634   3.33915   6.75955  3      199
siesta:      9.72831   3.25033   4.82636  2      200
siesta:      8.73621   3.21065   3.02545  1      201
siesta:      9.89461   5.21565   5.38950  1      202
siesta:     12.39850   2.25066   4.29157  2      203
siesta:     14.05768   3.73221   5.59170  3      204
siesta:     12.59314  46.19248   5.43863  3      205
siesta:     13.34714   2.02201   1.56847  2      206
siesta:     12.30401   3.38261   0.43842  1      207
siesta:     15.33702   2.57192   1.55902  1      208
siesta:     13.09014  45.74084   0.12850  2      209
siesta:     10.74688  44.76385   0.67274  3      210
siesta:     12.98809   0.10393  42.33744  3      211
siesta:     15.04978  43.63568   0.52345  2      212
siesta:     16.30267  43.65458  43.56198  1      213
siesta:     16.17606  44.12323   2.20342  1      214
siesta:     14.17295  40.89180   0.82014  2      215
siesta:     12.76699  40.25307  43.44293  3      216
siesta:     16.27811  39.44805   0.63306  3      217
siesta:     12.78211  40.07733   3.22954  2      218
siesta:     14.20130  39.13624   4.41062  1      219
siesta:     12.17551  41.77619   4.24244  1      220
siesta:     10.42373  38.35390   3.08214  2      221
siesta:      8.60582  39.52742   1.64217  3      222
siesta:     11.08703  36.20906   1.84437  3      223
siesta:      9.16707  37.54509   5.58225  2      224
siesta:     10.68830  37.02164   6.90695  1      225
siesta:      8.22409  39.22506   6.35515  1      226
siesta:      7.22443  35.37569   5.62761  2      227
siesta:      5.34226  36.05599   7.23765  3      228
siesta:      6.12460  35.24530   3.32214  3      229
siesta:      8.12583  32.68850   6.34003  2      230
siesta:      6.85593  31.38269   5.37249  1      231
siesta:     10.01933  32.40882   5.55013  1      232
siesta:      8.25244  31.82489   9.13872  2      233
siesta:      5.87516  31.93827  10.14594  3      234
siesta:      8.77778  29.30210   8.97242  3      235
siesta:     10.16484  32.93794  11.03600  2      236
siesta:     10.80735  31.38458  12.25110  1      237
siesta:     11.79190  33.55210   9.95319  1      238
siesta:      9.49777  35.17727  12.79723  2      239
siesta:      8.70030  37.13691  11.33269  3      240
siesta:      7.45686  34.46862  14.20508  3      241
siesta:     11.53111  36.18449  14.64916  2      242
siesta:     11.20230  35.18105  16.43118  1      243
siesta:     13.35659  35.50797  13.92918  1      244
siesta:     11.87882  39.01341  15.28222  2      245
siesta:     10.10248  39.63324  17.00943  3      246
siesta:     14.03689  39.21750  16.65227  3      247
siesta:     11.90150  41.12046  13.28100  2      248
siesta:      9.98154  41.36801  12.65361  1      249
siesta:     12.46086  42.85712  14.27689  1      250
siesta:     13.54367  40.98629  10.87538  2      251
siesta:     13.69296  38.50130  10.15728  3      252
siesta:     12.27567  42.09178   8.95164  3      253
siesta:     16.27433  41.99918  10.83380  2      254
siesta:     17.29856  40.91826  12.22653  1      255
siesta:     17.01510  41.52108   8.98187  1      256
siesta:     16.96408  44.82432  11.22120  2      257
siesta:     17.74831  45.74840   8.94597  3      258
siesta:     14.84569  46.20949  11.72765  3      259
siesta:     19.03900  45.55187  13.15817  2      260
siesta:     20.60180  44.25551  12.85392  1      261
siesta:     19.67584   1.20187  12.71786  1      262
siesta:     18.41728  45.44793  15.99465  2      263
siesta:     17.05856  43.31254  16.38015  3      264
siesta:     20.63960  45.04542  17.24754  3      265
siesta:     17.11337   1.43997  17.32313  2      266
siesta:     18.52499   2.28279  18.55901  1      267
siesta:     16.64849   2.83648  15.89449  1      268
siesta:     14.67940   1.09604  18.87837  2      269
siesta:     14.32791   3.24277  20.24653  3      270
siesta:     12.75944   1.01667  17.18329  3      271
siesta:     14.28445  45.08699  20.69629  2      272
siesta:     12.75188  45.65769  21.98886  1      273
siesta:     13.59470  43.52041  19.55678  1      274
siesta:     16.40283  44.09489  22.44429  2      275
siesta:     18.32468  45.83155  22.47641  3      276
siesta:     15.41828  44.20071  24.81400  3      277
siesta:     17.58013  41.45683  22.06445  2      278
siesta:     17.05101  40.81432  20.15394  1      279
siesta:     19.64182  41.69304  22.06256  1      280
siesta:     17.00943  39.23451  23.85780  2      281
siesta:     18.61759  37.36746  23.17939  3      282
siesta:     17.69918  39.81088  26.27098  3      283
siesta:     14.34492  37.99296  23.82568  2      284
siesta:     13.82524  37.74540  21.83957  1      285
siesta:     14.56979  36.10323  24.62125  1      286
siesta:     12.09047  39.16081  25.22785  2      287
siesta:     11.19285  41.11101  23.78788  3      288
siesta:     10.23665  37.37880  25.08612  3      289
siesta:     12.22086  40.03764  28.01898  2      290
siesta:     12.33425  38.31421  29.15282  1      291
siesta:     13.95563  41.08077  28.25331  1      292
siesta:     10.02878  41.64391  29.14526  2      293
siesta:      9.95886  43.92481  27.93583  3      294
siesta:      7.82725  40.52330  28.49519  3      295
siesta:      9.93240  42.11823  32.00630  2      296
siesta:      8.10315  42.97428  32.41260  1      297
siesta:     10.03445  40.26063  32.92093  1      298
siesta:     11.91473  43.77741  33.36313  2      299
siesta:     13.56446  42.20327  34.55555  3      300
siesta:     13.40194  44.87345  31.59812  3      301
siesta:     11.20797  45.89769  35.23585  2      302
siesta:     12.91250   0.11338  36.29220  1      303
siesta:     10.71097   1.27179  34.05099  1      304
siesta:      9.04990  45.62935  37.17282  2      305
siesta:      9.10659   1.55713  38.55232  3      306
siesta:      6.79735  45.82777  35.95394  3      307
siesta:      8.95542  43.44482  39.08900  2      308
siesta:     10.80735  42.54153  39.07388  1      309
siesta:      8.69841  44.27252  40.95983  1      310
siesta:      6.97687  41.32833  38.79420  2      311
siesta:      4.61849  42.29020  39.10979  3      312
siesta:      7.04112  40.59889  36.35457  3      313
siesta:      7.06002  38.95672  40.47984  2      314
siesta:      9.01967  38.40114  40.67637  1      315
siesta:      6.37594  39.54065  42.33744  1      316
siesta:      5.57847  36.54543  39.74285  2      317
siesta:      7.22254  34.58200  39.78064  3      318
siesta:      4.01756  36.05788  41.73651  3      319
siesta:      3.91362  36.34701  37.35801  2      320
siesta:      2.47743  34.94861  37.77375  1      321
siesta:      2.93286  38.13847  37.09345  1      322
siesta:      5.03234  35.63458  34.75397  2      323
siesta:      7.58347  35.91804  34.82200  3      324
siesta:      4.75833  33.10613  34.43838  3      325
siesta:      4.06858  36.91392  32.31433  2      326
siesta:      4.81124  38.81499  32.31811  1      327
siesta:      4.96809  35.94261  30.74397  1      328
siesta:      1.20187  37.10857  31.71340  2      329
siesta:      0.63117  35.05254  30.25264  3      330
siesta:     42.46027  36.66070  33.87524  3      331
siesta:      0.03779  39.43860  30.36791  2      332
siesta:      0.44031  39.24774  28.36858  1      333
siesta:     40.58755  39.32144  30.59657  1      334
siesta:      0.81636  42.15981  31.10301  2      335
siesta:      1.10549  42.20894  33.68060  3      336
siesta:      3.17285  42.63602  30.21295  3      337
siesta:     41.74218  44.42937  30.33390  2      338
siesta:      0.36850  46.08288  30.36791  1      339
siesta:     41.18471  44.13268  28.38748  1      340
siesta:     39.31388  45.09833  31.78521  2      341
siesta:     37.89469   0.37984  30.28287  3      342
siesta:     37.87958  42.97995  31.97985  3      343
siesta:     39.31955   0.10205  34.44216  2      344
siesta:     37.39392   0.62361  34.87113  1      345
siesta:     39.85812  44.87723  35.80088  1      346
siesta:     40.90881   2.49066  34.92971  2      347
siesta:     41.28864   3.62828  32.65448  3      348
siesta:     39.39136   4.17441  36.14859  3      349
siesta:      0.89762   2.34893  36.35079  2      350
siesta:      1.64784   0.48188  35.96906  1      351
siesta:      2.12972   3.74544  35.47962  1      352
siesta:      1.06581   2.74955  39.24396  2      353
siesta:      0.21732   5.11171  39.72395  3      354
siesta:     41.93871   1.21887  40.38724  3      355
siesta:      3.63772   2.37161  40.56677  2      356
siesta:      4.18197   0.40251  40.31354  1      357
siesta:      5.02478   3.53001  39.59734  1      358
siesta:      3.95331   2.99144  43.41459  2      359
siesta:      6.48932   3.05002  43.82088  3      360
siesta:      3.23710   5.43296  43.79064  3      361
siesta:      2.68152   1.34360   0.78424  2      362
siesta:      3.29568   2.11649   2.59460  1      363
siesta:      0.62550   1.62894   0.62928  1      364
siesta:      3.20687  44.71094   0.77668  2      365
siesta:      2.05602  43.67348  43.41836  3      366
siesta:      5.70320  44.30087   0.27779  3      367
siesta:      2.55113  43.09144   3.11616  2      368
siesta:      4.27456  42.21839   3.79835  1      369
siesta:      1.91051  44.39346   4.59582  1      370
siesta:      0.50267  40.99951   2.88939  2      371
siesta:     42.55098  40.12268   5.25155  3      372
siesta:     40.85590  42.05209   2.16941  3      373
siesta:      0.96754  38.65247   1.17163  2      374
siesta:      0.63306  39.23640  43.94182  1      375
siesta:      2.96498  38.18193   1.29257  1      376
siesta:     42.03131  36.19772   1.59304  2      377
siesta:     39.52553  36.80810   1.72532  3      378
siesta:     42.22784  34.78609  44.14591  3      379
siesta:     42.53208  34.50641   3.91551  2      380
siesta:      1.64973  35.21695   4.84904  1      381
siesta:     40.96739  34.83334   5.25344  1      382
siesta:      0.30425  31.63025   3.62072  2      383
siesta:     41.02030  30.70050   2.07681  3      384
siesta:      2.49822  31.27876   2.33003  3      385
siesta:      0.30047  29.92571   6.01311  2      386
siesta:      1.44753  30.91971   7.42285  1      387
siesta:     40.95038  29.80477   6.75010  1      388
siesta:      1.40785  27.22530   5.92429  2      389
siesta:      3.95898  27.35947   5.61627  3      390
siesta:      1.15273  26.23697   8.27133  3      391
siesta:      0.30992  25.23919   4.07047  2      392
siesta:     41.34911  24.29244   5.05124  1      393
siesta:     42.08800  26.28421   2.49255  1      394
siesta:      1.99177  23.14537   2.94986  2      395
siesta:      4.02701  24.26220   1.91051  3      396
siesta:      2.87994  21.77910   4.92652  3      397
siesta:      0.83526  21.21029   1.09982  2      398
siesta:      0.03402  19.71552   2.24500  1      399
siesta:     41.88013  22.15327   0.06236  1      400
siesta:      2.43397  19.92717  43.70371  2      401
siesta:      1.33037  17.66895  43.17459  3      402
siesta:      2.08626  21.29155  41.54187  3      403
siesta:      5.32147  19.43584  43.87190  2      404
siesta:      5.82036  18.47208  42.09745  1      405
siesta:      6.24933  21.28210  43.86056  1      406
siesta:      6.44208  17.84469   1.33982  2      407
siesta:      8.67763  16.91306   0.50834  3      408
siesta:      7.13561  19.39994   3.25789  3      409
siesta:      4.95864  15.59592   2.45287  2      410
siesta:      3.32970  16.35559   3.44686  1      411
siesta:      4.24433  14.54334   0.86172  1      412
siesta:      6.26255  13.75343   4.28779  2      413
siesta:      8.19008  14.96475   5.48210  3      414
siesta:      4.60337  13.30368   6.17374  3      415
siesta:      7.22821  11.15695   3.41474  2      416
siesta:      8.08425  10.24421   5.05313  1      417
siesta:      5.55013  10.07224   2.89695  1      418
siesta:      9.13494  10.89428   1.21509  2      419
siesta:      9.08581   8.43385   0.49322  3      420
siesta:      8.18252  12.11126  43.84922  3      421
siesta:     11.91473  11.74276   1.54580  2      422
siesta:     12.60637  12.09425  44.31787  1      423
siesta:     11.85615  13.53989   2.53790  1      424
siesta:     13.88382  10.04201   2.91396  2      425
siesta:     13.18273   9.77556   5.36871  3      426
siesta:     13.68729   7.67607   1.94075  3      427
siesta:     16.72030  10.70341   2.98010  2      428
siesta:     17.63115   9.12927   3.98732  1      429
siesta:     17.38927  10.64861   1.05636  1      430
siesta:     17.70485  13.18462   4.19519  2      431
siesta:     17.15305  13.24888   6.72176  3      432
siesta:     20.26543  12.98998   4.27078  3      433
siesta:     17.17573  15.76977   2.99144  2      434
siesta:     18.96341  16.78266   3.02734  1      435
siesta:     16.68818  15.45419   0.99778  1      436
siesta:     15.16317  17.59336   4.06858  2      437
siesta:     13.65706  18.34736   2.11271  3      438
siesta:     13.57391  16.28189   5.60493  3      439
siesta:     15.96441  19.96307   5.53501  2      440
siesta:     14.42429  20.33724   6.86349  1      441
siesta:     17.65194  19.50198   6.61782  1      442
siesta:     16.52566  22.52554   4.19330  2      443
siesta:     17.65383  24.05433   5.93374  3      444
siesta:     18.41917  22.09091   2.48688  3      445
siesta:     14.44318  24.08646   2.84782  2      446
siesta:     15.38238  25.63981   1.84248  1      447
siesta:     13.59281  22.87325   1.42863  1      448
siesta:     12.27756  25.33557   4.35204  2      449
siesta:     11.57269  23.76898   6.27389  3      450
siesta:     13.22998  27.43317   5.51611  3      451
siesta:      9.83792  26.16516   2.97443  2      452
siesta:      8.97053  24.46440   2.22232  1      453
siesta:      8.60771  26.95317   4.43897  1      454
siesta:      9.95697  28.08134   0.78991  2      455
siesta:     11.32891  30.11847   1.61005  3      456
siesta:     11.39127  27.05333  43.61490  3      457
siesta:      7.52489  29.15471  44.36890  2      458
siesta:      5.97154  28.55755   0.87116  1      459
siesta:      7.63072  31.18049  44.53330  1      460
siesta:      6.70664  28.56322  41.64391  2      461
siesta:      8.63794  29.30210  40.12457  3      462
siesta:      6.57814  26.01965  41.35478  3      463
siesta:      4.26322  29.70840  40.52897  2      464
siesta:      4.03646  31.54143  41.44927  1      465
siesta:      4.60715  29.99563  38.52397  1      466
siesta:      1.68375  28.36102  40.73873  2      467
siesta:      1.81792  26.12736  39.47450  3      468
siesta:      1.40218  27.64859  43.18782  3      469
siesta:     41.75729  29.66493  39.98284  2      470
siesta:     40.28331  28.80133  41.12046  1      471
siesta:     41.92170  31.62080  40.61968  1      472
siesta:     40.82944  29.72162  37.19927  2      473
siesta:     38.69027  31.12947  37.06132  3      474
siesta:     42.55476  31.03309  35.83678  3      475
siesta:     40.31165  27.28388  35.69127  2      476
siesta:     39.58600  27.90938  33.88280  1      477
siesta:     42.11067  26.33712  35.34167  1      478
siesta:     38.47484  25.22407  36.66070  2      479
siesta:     38.89247  24.82156  39.17593  3      480
siesta:     36.11079  26.27287  36.55677  3      481
siesta:     38.29154  22.63515  35.29254  2      482
siesta:     36.31488  22.03611  35.43427  1      483
siesta:     38.70917  22.93562  33.30077  1      484
siesta:     39.88269  20.37881  36.17504  2      485
siesta:     39.18349  19.86103  38.59389  3      486
siesta:     39.17782  18.38326  34.71050  3      487
siesta:      0.20976  20.45062  36.15236  2      488
siesta:      0.77857  22.27988  36.93093  1      489
siesta:      0.86738  19.01065  37.51108  1      490
siesta:      1.72910  20.08969  33.68627  2      491
siesta:      1.68375  17.57824  33.10801  3      492
siesta:      0.38550  21.22541  31.81166  3      493
siesta:      4.50889  20.91928  33.38769  2      494
siesta:      5.68241  19.37915  34.10012  1      495
siesta:      4.82447  21.13282  31.33545  1      496
siesta:      5.51044  23.36080  34.64058  2      497
siesta:      3.60182  25.05022  34.77286  3      498
siesta:      6.03768  22.73530  37.04810  3      499
siesta:      7.87260  24.69684  33.55210  2      500
siesta:      8.63416  25.81178  35.11113  1      501
siesta:      9.27100  23.22285  33.07778  1      502
siesta:      7.77812  26.46374  31.22585  2      503
siesta:      9.92485  27.86969  31.32789  3      504
siesta:      8.04457  24.98597  29.11124  3      505
siesta:      5.59737  28.35724  30.74019  2      506
siesta:      4.68841  28.78243  32.52031  1      507
siesta:      6.48365  30.10524  30.06744  1      508
siesta:      3.49788  27.66182  28.82967  2      509
siesta:      2.63239  25.33179  29.40226  3      510
siesta:      1.47777  29.18683  29.26998  3      511
siesta:      4.09693  27.63348  25.98941  2      512
siesta:      6.08870  28.13047  25.71729  1      513
siesta:      3.89662  25.67383  25.38092  1      514
siesta:      2.53223  29.20195  24.09780  2      515
siesta:      3.57536  28.83345  21.77532  3      516
siesta:      0.20976  28.14748  23.90505  3      517
siesta:      2.06358  32.08000  24.31890  2      518
siesta:      0.85416  32.55432  22.68428  1      519
siesta:      0.94864  32.37669  26.04233  1      520
siesta:      4.29346  33.98107  24.35480  2      521
siesta:      3.55836  35.92371  25.82501  3      522
siesta:      6.26444  32.93794  25.67005  3      523
siesta:      5.35549  35.01853  21.83201  2      524
siesta:      7.39828  35.04310  21.99453  1      525
siesta:      4.83392  33.64848  20.37504  1      526
siesta:      4.54479  37.64903  20.86258  2      527
siesta:      5.20620  37.79265  18.38704  3      528
siesta:      1.97099  37.61123  20.80211  3      529
siesta:      5.48966  40.09245  22.18728  2      530
siesta:      6.23232  39.52553  24.02032  1      531
siesta:      7.10348  40.75763  21.11581  1      532
siesta:      3.69442  42.33366  22.71641  2      533
siesta:      1.97476  42.53397  20.79833  3      534
siesta:      2.19586  41.69871  24.73464  3      535
siesta:      4.76589  45.03408  23.21907  2      536
siesta:      3.17663  46.21327  23.84268  1      537
siesta:      6.05657  44.87156  24.81967  1      538
siesta:      6.16051   0.22488  21.11392  2      539
siesta:      7.00900   2.44153  22.13626  3      540
siesta:      8.29212  45.17959  20.58102  3      541
siesta:      4.92463   0.84849  18.54956  2      542
siesta:      6.41373   1.60627  17.32880  1      543
siesta:      4.33881  45.27975  17.75587  1      544
siesta:      2.62294   2.63806  18.40027  2      545
siesta:      1.50422   2.13539  16.11181  3      546
siesta:      0.82770   1.91807  20.11425  3      547
siesta:      3.00278   5.50099  18.54389  2      548
siesta:      4.85849   5.86193  17.72942  1      549
siesta:      1.59682   6.31169  17.28155  1      550
siesta:      2.72688   6.93530  21.10825  2      551
siesta:      0.31180   7.86315  21.16116  3      552
siesta:      2.77412   5.21187  23.03199  3      553
siesta:      4.49566   9.12927  21.87548  2      554
siesta:      3.27679  10.58058  22.72397  1      555
siesta:      5.72587   8.45275  23.36836  1      556
siesta:      6.13972  10.51822  19.89882  2      557
siesta:      4.82258  10.57302  17.66328  3      558
siesta:      6.25500  12.99943  20.60747  3      559
siesta:      8.82691   9.54312  19.33758  2      560
siesta:      8.79479   7.47954  19.57568  1      561
siesta:      9.24265   9.92863  17.37793  1      562
siesta:     11.13238  10.47287  20.89282  2      563
siesta:     10.47098  10.55223  23.37025  3      564
siesta:     12.88605   8.61149  20.76054  3      565
siesta:     12.43629  13.02022  20.29567  2      566
siesta:     12.12638  13.43974  18.31523  1      567
siesta:     11.42718  14.46208  21.38226  1      568
siesta:     15.29734  13.37171  20.83046  2      569
siesta:     16.62204  12.30779  18.89349  3      570
siesta:     15.71875  15.88126  20.55645  3      571
siesta:     16.48787  12.48354  23.35324  2      572
siesta:     15.75087  13.73453  24.81022  1      573
siesta:     15.84347  10.58814  23.71607  1      574
siesta:     19.39238  12.44952  23.70662  2      575
siesta:     20.46952  14.11815  22.10036  3      576
siesta:     19.83457  13.49454  26.01587  3      577
siesta:     20.94195   9.98343  23.61592  2      578
siesta:     22.90916  10.48231  24.05055  1      579
siesta:     20.27110   8.77967  25.12770  1      580
siesta:     21.00809   8.34692  21.20274  2      581
siesta:     18.67428   7.31891  20.88904  3      582
siesta:     21.33313   9.87949  19.17317  3      583
siesta:     22.93562   6.18886  20.97975  2      584
siesta:     22.78822   5.10037  22.74097  1      585
siesta:     22.33468   4.98321  19.41127  1      586
siesta:     25.76076   6.75199  20.54511  2      587
siesta:     26.11225   6.96931  17.99020  3      588
siesta:     26.35224   9.10470  21.45785  3      589
siesta:     27.79977   4.90384  21.57312  2      590
siesta:     29.45706   5.19297  20.37881  1      591
siesta:     28.33079   5.55580  23.45718  1      592
siesta:     27.32356   2.02201  21.70918  2      593
siesta:     25.67005   1.63461  23.65938  3      594
siesta:     26.03099   1.38517  19.57568  3      595
siesta:     29.55722   0.17197  21.97185  2      596
siesta:     30.60035   0.27968  20.18606  1      597
siesta:     30.79688   0.94108  23.42316  1      598
siesta:     29.10935  43.62623  22.60302  2      599
siesta:     30.54743  42.23540  20.99109  3      600
siesta:     30.17705  43.23317  24.88959  3      601
siesta:     26.41838  42.50563  22.64649  2      602
siesta:     25.57934  43.08199  24.43228  1      603
siesta:     25.34313  43.31254  21.08179  1      604
siesta:     26.00831  39.62757  22.42728  2      605
siesta:     23.56678  39.20994  23.10947  3      606
siesta:     26.12169  39.02853  19.93851  3      607
siesta:     27.65804  37.73029  23.91638  2      608
siesta:     29.64226  38.28776  23.68206  1      609
siesta:     27.15538  37.93816  25.91949  1      610
siesta:     27.55033  34.89192  23.29277  2      611
siesta:     29.60068  34.32311  21.86603  3      612
siesta:     27.96796  33.63336  25.51320  3      613
siesta:     25.19762  33.77131  21.99264  2      614
siesta:     23.58568  34.62169  22.93373  1      615
siesta:     25.22218  34.42893  20.03866  1      616
siesta:     24.68928  30.90837  21.89816  2      617
siesta:     26.90782  29.73485  21.38604  3      618
siesta:     24.03355  30.12981  24.26220  3      619
siesta:     22.69751  29.82367  20.05756  2      620
siesta:     23.61403  29.57423  18.20752  1      621
siesta:     22.16650  27.97552  20.79644  1      622
siesta:     20.26354  31.36002  19.53978  2      623
siesta:     19.35647  32.23874  21.77721  3      624
siesta:     20.93628  33.43683  18.18862  3      625
siesta:     18.00721  30.06933  18.18106  2      626
siesta:     18.43429  30.12414  16.15905  1      627
siesta:     17.93918  28.08890  18.75365  1      628
siesta:     15.30679  31.16160  18.48720  2      629
siesta:     15.41450  33.70517  18.22075  3      630
siesta:     13.93674  30.32823  16.47275  3      631
siesta:     13.78178  30.67405  20.91928  2      632
siesta:     14.84191  29.31155  22.05689  1      633
siesta:     13.78556  32.46362  21.93973  1      634
siesta:     11.00577  29.75375  20.80589  2      635
siesta:      9.99288  30.07311  23.14726  3      636
siesta:      9.67162  31.41482  19.34891  3      637
siesta:     10.32358  27.09112  19.84402  2      638
siesta:      8.37527  26.80578  20.39015  1      639
siesta:     10.40673  27.16482  17.77477  1      640
siesta:     11.83158  24.75920  20.72274  2      641
siesta:     14.31846  25.09935  20.09725  3      642
siesta:     11.85804  24.75164  23.28710  3      643
siesta:     11.13616  22.08524  19.80056  2      644
siesta:     11.37427  22.07957  17.78044  1      645
siesta:     12.52889  20.77377  20.59991  1      646
siesta:      8.51133  20.96463  20.30512  2      647
siesta:      7.05435  21.57312  18.26610  3      648
siesta:      8.80424  18.42673  20.11803  3      649
siesta:      6.96931  21.60525  22.70696  2      650
siesta:      7.60048  23.45340  23.33435  1      651
siesta:      5.00778  21.79989  22.10036  1      652
siesta:      6.99388  19.90638  25.08612  2      653
siesta:      9.27856  20.22764  26.23508  3      654
siesta:      5.34037  20.97408  26.74719  3      655
siesta:      6.50633  17.03778  24.93684  2      656
siesta:      5.02667  16.78077  23.51765  1      657
siesta:      8.23543  16.17795  24.21685  1      658
siesta:      5.70320  15.51277  27.29522  2      659
siesta:      3.35804  16.31779  28.02654  3      660
siesta:      5.31013  13.09959  26.50342  3      661
siesta:      7.43985  15.42584  29.66304  2      662
siesta:      7.80457  17.37982  30.20917  1      663
siesta:      6.33247  14.56601  31.17104  1      664
siesta:     10.05335  14.09169  29.55344  2      665
siesta:      9.74154  11.79001  28.45740  3      666
siesta:     11.57647  15.38238  27.93016  3      667
siesta:     11.54812  13.57769  32.00819  2      668
siesta:     10.79412  11.82969  32.78676  1      669
siesta:     13.50588  13.18651  31.43750  1      670
siesta:     11.63316  15.51277  34.20217  2      671
siesta:     11.82969  17.85603  33.15337  3      672
siesta:      9.31068  15.47875  35.33978  3      673
siesta:     13.70997  15.25954  36.25063  2      674
siesta:     14.43562  13.35470  36.11268  1      675
siesta:     15.24821  16.51432  35.75174  1      676
siesta:     13.16006  15.64505  39.09656  2      677
siesta:     11.77489  13.61359  39.86757  3      678
siesta:     15.38427  15.36537  40.31354  3      679
siesta:     11.85426  18.02044  40.19260  2      680
siesta:      9.83036  17.72375  39.99607  1      681
siesta:     12.20575  17.98075  42.22595  1      682
siesta:     12.45330  20.75487  39.29309  2      683
siesta:     11.23065  21.06290  37.06510  3      684
siesta:     11.32135  22.38759  40.93148  3      685
siesta:     15.20474  21.64493  38.84712  2      686
siesta:     16.04378  20.34858  37.50730  1      687
siesta:     15.10837  23.49119  37.93249  1      688
siesta:     17.15872  21.88682  41.01463  2      689
siesta:     16.71652  24.13748  42.18626  3      690
siesta:     16.64093  20.11425  42.82310  3      691
siesta:     20.01410  21.74887  40.38913  2      692
siesta:     20.37504  23.04711  38.83200  1      693
siesta:     20.98164  22.47074  42.05020  1      694
siesta:     21.26510  19.18829  39.71450  2      695
siesta:     19.54922  17.82579  38.38224  3      696
siesta:     23.16805  19.73253  38.06477  3      697
siesta:     22.37437  17.51021  41.83099  2      698
siesta:     24.06189  18.47397  42.50752  1      699
siesta:     21.00053  17.47241  43.37868  1      700
siesta:     23.14915  14.73231  41.29242  2      701
siesta:     21.46541  13.26210  42.58311  3      702
siesta:     22.74475  14.14461  38.82444  3      703
siesta:     25.82123  13.76288  41.95761  2      704
siesta:     26.30122  12.31346  40.56488  1      705
siesta:     27.12136  15.34269  41.63824  1      706
siesta:     26.39759  12.66495  44.58622  2      707
siesta:     25.18061  10.40862   0.01323  3      708
siesta:     28.89392  12.04134  44.61834  3      709
siesta:     25.85524  14.12382   2.35082  2      710
siesta:     23.90505  14.67751   2.32625  1      711
siesta:     26.04422  12.77455   3.85693  1      712
siesta:     27.45206  16.47653   3.01978  2      713
siesta:     29.79721  15.63182   3.71331  3      714
siesta:     27.89426  17.86359   0.89951  3      715
siesta:     26.56767  18.31145   5.14951  2      716
siesta:     26.17839  17.17951   6.80680  1      717
siesta:     28.17961  19.51143   5.60304  1      718
siesta:     24.20929  20.04622   4.76022  2      719
siesta:     23.11325  19.46041   2.52279  3      720
siesta:     22.44429  19.28844   6.48365  3      721
siesta:     24.36047  22.94695   4.97376  2      722
siesta:     22.44807  23.63859   5.31769  1      723
siesta:     25.49242  23.35702   6.65373  1      724
siesta:     25.44706  24.53432   2.75144  2      725
siesta:     27.69017  23.48742   2.17319  3      726
siesta:     23.97685  24.10914   0.67085  3      727
siesta:     25.87225  27.41049   2.96687  2      728
siesta:     27.72607  27.77332   2.16752  1      729
siesta:     24.49086  28.31189   1.74989  1      730
siesta:     25.79477  28.83345   5.51044  2      731
siesta:     25.46029  31.31466   4.94164  3      732
siesta:     23.64048  28.18717   6.71042  3      733
siesta:     28.05111  28.71440   7.36993  2      734
siesta:     29.33234  27.26498   6.64995  1      735
siesta:     29.00920  30.52098   7.27923  1      736
siesta:     27.69584  28.19095  10.23287  2      737
siesta:     25.77965  29.69517  11.03412  3      738
siesta:     26.82278  25.77776  10.45019  3      739
siesta:     29.96162  28.44039  12.07913  2      740
siesta:     30.81956  26.55066  12.18685  1      741
siesta:     31.35813  29.67816  11.19852  1      742
siesta:     29.60635  29.36825  14.81546  2      743
siesta:     27.31033  28.61613  15.68473  3      744
siesta:     31.24852  27.99063  16.27433  3      745
siesta:     30.00319  32.15181  15.56190  2      746
siesta:     29.84446  32.22929  17.60659  1      747
siesta:     31.94016  32.62424  15.07435  1      748
siesta:     28.29488  34.24941  14.48287  2      749
siesta:     28.40826  34.10579  11.89394  3      750
siesta:     25.88548  33.71651  15.10081  3      751
siesta:     28.74086  37.04243  15.24632  2      752
siesta:     26.86625  37.90036  15.45419  1      753
siesta:     29.63281  37.00274  17.09825  1      754
siesta:     30.36980  38.79420  13.56068  2      755
siesta:     32.56377  37.52998  13.04856  3      756
siesta:     29.23785  39.01341  11.24576  3      757
siesta:     31.16349  41.43037  14.49421  2      758
siesta:     31.78332  41.18093  16.43684  1      759
siesta:     32.79054  42.04264  13.36226  1      760
siesta:     29.25675  43.61301  14.52822  2      761
siesta:     27.46340  43.04420  16.24976  3      762
siesta:     30.52854  45.65580  15.47497  3      763
siesta:     27.89426  44.43882  12.09047  2      764
siesta:     29.23030  44.18370  10.53145  1      765
siesta:     26.33523  43.11979  11.77489  1      766
siesta:     26.78688   0.90329  11.85615  2      767
siesta:     24.75920   0.68786  10.28200  3      768
siesta:     25.71540   1.56847  14.10870  3      769
siesta:     28.34779   3.21820  10.97175  2      770
siesta:     26.94184   4.64873  10.47665  1      771
siesta:     29.37014   3.89284  12.63282  1      772
siesta:     30.30366   2.99711   8.78912  2      773
siesta:     32.41449   1.90673   9.79445  3      774
siesta:     29.47407   1.26801   7.07136  3      775
siesta:     31.24285   5.38950   7.39072  2      776
siesta:     32.04599   6.62916   8.82502  1      777
siesta:     32.77731   4.79424   6.15106  1      778
siesta:     29.47407   7.07892   5.77690  2      779
siesta:     28.06244   8.47165   7.40017  3      780
siesta:     30.96506   8.84581   4.63739  3      781
siesta:     27.72040   5.95264   3.71142  2      782
siesta:     27.98497   7.08270   1.99555  1      783
siesta:     28.38559   4.03646   3.31080  1      784
siesta:     24.83857   5.77878   4.16685  2      785
siesta:     24.51354   4.53912   6.38539  3      786
siesta:     23.88615   8.12583   4.55235  3      787
siesta:     23.13593   4.47109   2.19964  2      788
siesta:     22.19295   5.96209   1.11683  1      789
siesta:     24.35858   3.44875   0.90518  1      790
siesta:     21.05723   2.57759   2.97821  2      791
siesta:     19.27332   3.88339   4.33314  3      792
siesta:     19.84213   1.84626   0.81447  3      793
siesta:     21.69595   0.14740   4.48054  2      794
siesta:     22.21185   0.68219   6.40050  1      795
siesta:     19.94418  45.31187   4.58637  1      796
siesta:     23.74820  44.55220   3.57914  2      797
siesta:     22.92995  43.44860   1.41352  3      798
siesta:     25.87414  45.86934   2.89884  3      799
siesta:     24.67038  42.41870   5.33659  2      800
siesta:     25.75131  41.15825   4.13661  1      801
siesta:     26.00264  43.29175   6.67829  1      802
siesta:     22.74286  40.77653   6.82569  2      803
siesta:     22.27610  42.00863   9.03100  3      804
siesta:     20.50543  40.82755   5.55391  3      805
siesta:     23.32301  37.99863   7.50600  2      806
siesta:     22.83735  36.85723   5.83737  1      807
siesta:     25.36769  37.83422   7.76300  1      808
siesta:     22.02855  36.77786   9.85493  2      809
siesta:     23.39671  37.49785  11.91851  3      810
siesta:     19.74009  37.92304  10.15350  3      811
siesta:     21.64682  33.86202  10.03823  2      812
siesta:     22.79578  33.02676   8.57369  1      813
siesta:     22.43673  33.29510  11.85237  1      814
siesta:     18.99931  32.59590   9.97020  2      815
siesta:     19.22230  30.54366  11.48387  3      816
siesta:     17.25699  34.03776  11.18529  3      817
siesta:     17.83335  31.61513   7.45119  2      818
siesta:     19.26954  30.44350   6.55735  1      819
siesta:     16.27055  30.38492   7.96709  1      820
siesta:     16.85258  33.47462   5.41407  2      821
siesta:     14.36948  33.88847   5.92051  3      822
siesta:     17.93918  35.77631   5.79768  3      823
siesta:     16.99242  32.79999   2.57003  2      824
siesta:     15.98520  31.01042   2.31114  1      825
siesta:     15.91528  34.28154   1.55147  1      826
siesta:     19.58513  32.55621   1.26801  2      827
siesta:     21.39360  33.46706   2.85349  3      828
siesta:     20.12559  30.04099   1.05447  3      829
siesta:     20.04811  33.77698  43.37112  2      830
siesta:     18.75365  32.83967  42.07666  1      831
siesta:     19.49442  35.75930  43.52230  1      832
siesta:     22.66727  33.67304  42.06721  2      833
siesta:     23.09246  31.25797  41.29242  3      834
siesta:     22.45940  35.01664  39.84678  3      835
siesta:     25.07479  34.64247  43.40892  2      836
siesta:     25.37714  33.44250   0.37795  1      837
siesta:     26.64326  34.29287  42.15981  1      838
siesta:     25.35824  37.40903  44.27252  2      839
siesta:     23.00931  38.40114  44.56921  3      840
siesta:     26.28043  37.25030   1.98799  3      841
siesta:     27.04766  39.33089  42.87034  2      842
siesta:     26.79066  41.11668  43.87190  1      843
siesta:     28.99786  38.70917  43.13869  1      844
siesta:     26.72074  39.89591  40.02442  2      845
siesta:     28.78243  41.22439  39.24396  3      846
siesta:     26.92483  37.66415  38.74129  3      847
siesta:     24.33023  41.21494  39.04743  2      848
siesta:     24.30378  40.86345  37.01786  1      849
siesta:     22.72963  40.22284  39.90914  1      850
siesta:     23.94473  44.09111  39.45372  2      851
siesta:     25.50186  44.88290  41.33211  3      852
siesta:     24.73086  45.35533  37.35612  3      853
siesta:     21.31801  45.15691  40.16237  2      854
siesta:     20.74920  44.13457  41.84989  1      855
siesta:     21.60336   0.89006  40.70661  1      856
siesta:     19.05223  45.03030  38.34634  2      857
siesta:     17.97508  42.71917  38.60523  3      858
siesta:     17.32691   0.42519  39.27797  3      859
siesta:     19.30356  45.68037  35.50986  2      860
siesta:     17.39494  46.16603  34.86924  1      861
siesta:     20.43362   1.14706  35.40781  1      862
siesta:     20.31456  43.77552  33.52753  2      863
siesta:     20.54700  41.46250  34.61602  3      864
siesta:     18.46263  43.40136  31.75308  3      865
siesta:     22.81656  44.28386  32.09701  2      866
siesta:     23.56489  46.06398  32.76975  1      867
siesta:     24.14315  42.80987  32.65826  1      868
siesta:     22.87703  44.40480  29.19628  2      869
siesta:     25.23730  45.25707  28.58023  3      870
siesta:     22.83735  41.98406  28.36291  3      871
siesta:     20.95518  45.86934  27.55789  2      872
siesta:     21.86225  46.13012  25.73052  1      873
siesta:     19.34891  44.63346  27.29144  1      874
siesta:     19.80623   2.21287  28.30433  2      875
siesta:     20.17661   2.67396  30.80255  3      876
siesta:     21.27455   4.00055  27.13270  3      877
siesta:     17.03778   2.81002  27.66371  2      878
siesta:     16.88849   2.88939  25.62092  1      879
siesta:     15.91150   1.19809  28.34590  1      880
siesta:     15.74709   5.22887  28.63692  2      881
siesta:     15.10270   4.87361  31.10868  3      882
siesta:     17.52911   7.10159  28.69739  3      883
siesta:     13.40950   6.32114  27.27254  2      884
siesta:     12.94463   8.12016  28.15504  1      885
siesta:     13.98209   6.73121  25.30533  1      886
siesta:     10.93774   4.76967  27.06656  2      887
siesta:      9.37871   6.00177  25.39982  3      888
siesta:     11.54434   2.57192  25.89493  3      889
siesta:      9.41462   4.11394  29.47974  2      890
siesta:      9.49588   2.07114  29.61391  1      891
siesta:     10.39728   4.88872  31.11435  1      892
siesta:      6.60649   4.86983  29.75186  2      893
siesta:      5.22887   3.75111  27.89804  3      894
siesta:      5.74477   3.71520  31.89670  3      895
siesta:      5.79579   7.69497  29.92760  2      896
siesta:      6.94286   8.55857  31.42616  1      897
siesta:      6.38350   8.54912  28.13992  1      898
siesta:      3.02923   8.51700  30.37925  2      899
siesta:      2.26767   7.66662  32.69794  3      900
siesta:      3.11049  11.07947  30.68727  3      901
siesta:      1.01856   7.86315  28.37992  2      902
siesta:      1.99555   7.86693  26.55822  1      903
siesta:      0.46676   5.90162  28.76920  1      904
siesta:     41.13368   9.45052  28.05677  2      905
siesta:     40.97873  11.28356  29.87847  3      906
siesta:     41.36045  10.78845  25.87414  3      907
siesta:     38.55421   8.08803  27.95662  2      908
siesta:     38.41437   6.99199  29.69895  1      909
siesta:     37.08967   9.55824  28.03032  1      910
siesta:     37.88335   6.23988  25.77965  2      911
siesta:     39.86001   4.62038  25.53210  3      912
siesta:     35.98796   4.71676  26.66405  3      913
siesta:     37.22384   7.25655  23.15104  2      914
siesta:     38.04587   9.15384  22.99420  1      915
siesta:     38.20650   6.02445  21.81690  1      916
siesta:     34.43838   7.46631  22.25909  2      917
siesta:     33.77320   5.12116  21.40494  3      918
siesta:     32.89637   7.89339  24.25842  3      919
siesta:     33.61257   9.38627  20.23709  2      920
siesta:     31.83434   8.72865  19.41694  1      921
siesta:     33.21762  11.13805  21.22730  1      922
siesta:     35.30955  10.12138  17.98075  2      923
siesta:     34.10957  11.91284  16.58046  3      924
siesta:     37.28431  11.40072  18.98231  3      925
siesta:     36.44905   8.19008  16.11559  2      926
siesta:     37.32400   9.28045  14.60381  1      927
siesta:     37.94572   7.19041  17.14360  1      928
siesta:     34.79554   6.15862  14.82302  2      929
siesta:     32.28787   6.80491  15.11026  3      930
siesta:     35.24152   6.38161  12.28511  3      931
siesta:     35.00908   3.31458  15.51277  2      932
siesta:     34.03587   3.00089  17.30801  1      933
siesta:     33.98485   2.24500  14.06902  1      934
siesta:     37.68115   2.05791  15.75087  2      935
siesta:     39.25152   3.15206  14.06146  3      936
siesta:     38.56933   2.68152  18.09225  3      937
siesta:     38.04398  45.41014  15.45041  2      938
siesta:     37.00652  44.84133  13.73642  1      939
siesta:     40.04142  45.05109  15.08380  1      940
siesta:     37.19738  43.59222  17.54800  2      941
siesta:     34.85034  44.27441  18.37570  3      942
siesta:     36.86668  41.28486  16.47842  3      943
siesta:     38.89436  43.20294  19.91961  2      944
siesta:     39.94694  41.45872  19.58702  1      945
siesta:     40.24740  44.72039  19.95552  1      946
siesta:     37.78698  43.03853  22.60113  2      947
siesta:     39.75796  42.95349  24.22441  3      948
siesta:     36.63236  45.29297  23.08679  3      949
siesta:     35.91048  40.92770  23.33624  2      950
siesta:     34.60846  41.77430  24.68550  1      951
siesta:     34.83523  40.44204  21.63926  1      952
siesta:     36.86290  38.39925  24.51165  2      953
siesta:     37.71895  38.87735  26.89270  3      954
siesta:     34.79932  36.91959  24.93684  3      955
siesta:     38.88680  36.76464  23.19262  2      956
siesta:     40.33244  38.04965  22.49342  1      957
siesta:     39.81088  35.61568  24.62503  1      958
siesta:     38.10445  34.97884  20.99865  2      959
siesta:     36.42638  36.28654  19.57190  3      960
siesta:     40.17748  34.75586  19.48875  3      961
siesta:     37.03676  32.31433  21.59580  2      962
siesta:     38.49563  31.32600  22.68995  1      963
siesta:     35.39458  32.52598  22.84869  1      964
siesta:     36.15236  30.53610  19.46986  2      965
siesta:     33.71462  29.96351  20.03677  3      966
siesta:     36.02953  31.84190  17.25888  3      967
siesta:     37.51108  27.98497  18.93695  2      968
siesta:     39.23640  27.94528  20.00654  1      969
siesta:     36.27520  26.51665  19.70796  1      970
siesta:     38.17815  27.12892  16.22519  2      971
siesta:     38.54476  24.58157  16.29700  3      972
siesta:     36.09378  27.42939  14.75688  3      973
siesta:     40.41937  28.24575  14.74554  2      974
siesta:     40.70094  27.04388  13.08258  1      975
siesta:     39.83733  30.10713  14.09169  1      976
siesta:      0.40440  28.54055  16.04567  2      977
siesta:      0.20787  30.57011  17.55367  3      978
siesta:      0.64251  26.53366  17.64816  3      979
siesta:      2.85538  28.86369  14.45263  2      980
siesta:      2.29980  29.10935  12.46464  1      981
siesta:      3.76434  30.63436  15.06112  1      982
siesta:      4.90006  26.76987  14.55279  2      983
siesta:      7.11671  27.72796  13.65517  3      984
siesta:      5.41029  26.30689  17.02455  3      985
siesta:      4.35960  24.17150  13.33958  2      986
siesta:      4.12149  22.83546  14.90428  1      987
siesta:      2.53790  24.29811  12.41173  1      988
siesta:      6.20775  22.99987  11.40639  2      989
siesta:      6.38728  24.62314   9.44485  3      990
siesta:      8.56046  22.92995  12.44196  3      991
siesta:      5.62950  20.39582  10.21397  2      992
siesta:      3.57158  20.31456   9.86626  1      993
siesta:      6.54790  20.44118   8.37149  1      994
siesta:      6.43074  17.95241  11.55757  2      995
siesta:      5.59170  18.09036  14.01044  3      996
siesta:      5.03045  16.07024  10.48043  3      997
siesta:      9.21053  17.13037  11.65206  2      998
siesta:     10.08547  17.57824   9.85493  1      999
siesta:     10.11760  18.29445  13.08825  1     1000
siesta:      9.93240  14.38082  12.27000  2     1001
siesta:     12.38716  14.44885  12.97109  3     1002
siesta:      8.62849  13.65895  14.37893  3     1003
siesta:      9.66028  12.29645  10.27067  2     1004
siesta:      7.64583  12.22842   9.78123  1     1005
siesta:     10.71853  12.88605   8.62282  1     1006
siesta:     10.45208   9.53934  10.79034  2     1007
siesta:      9.06502   8.65873  12.76699  3     1008
siesta:      9.58658   8.11071   8.85148  3     1009
siesta:     13.25643   8.75321  11.13994  2     1010
siesta:     13.51344   7.02223  10.02689  1     1011
siesta:     14.40350  10.20453  10.23476  1     1012
siesta:     14.36192   8.25433  13.78556  2     1013
siesta:     13.34147   9.95130  15.40505  3     1014
siesta:     13.50210   5.98854  14.61893  3     1015
siesta:     17.27399   8.32803  14.19941  2     1016
siesta:     17.78611  10.32547  14.36381  1     1017
siesta:     17.62737   7.50977  16.06457  1     1018
siesta:     19.12593   7.06380  12.31535  2     1019
siesta:     20.91550   5.82981  13.67217  3     1020
siesta:     17.86926   5.19864  11.09837  3     1021
siesta:     20.52810   8.62282  10.27256  2     1022
siesta:     21.53722   7.28112   9.07636  1     1023
siesta:     19.08813   9.48265   9.09337  1     1024
siesta:     22.41216  10.74121  11.01144  2     1025
siesta:     23.16427  11.85993   8.80991  3     1026
siesta:     21.05156  12.54401  12.23598  3     1027
siesta:     24.77243  10.15350  12.58936  2     1028
siesta:     24.14504   9.13116  14.29011  1     1029
siesta:     25.93272   8.87038  11.47820  1     1030
siesta:     26.58090  12.27378  13.48131  2     1031
siesta:     28.87125  11.13427  13.84603  3     1032
siesta:     26.91538  13.90650  11.51789  3     1033
siesta:     25.96485  13.88571  15.85859  2     1034
siesta:     24.74597  15.44663  15.25010  1     1035
siesta:     24.84424  12.73487  17.17006  1     1036
siesta:     28.14559  15.06490  17.42328  2     1037
siesta:     27.01554  16.47086  19.27899  3     1038
siesta:     29.30777  13.12604  18.68751  3     1039
siesta:     30.22051  16.73353  16.17039  2     1040
siesta:     31.88536  16.63338  17.36659  1     1041
siesta:     30.69672  15.84536  14.35814  1     1042
siesta:     29.69328  19.54545  15.55434  2     1043
siesta:     31.63592  20.36181  14.08980  3     1044
siesta:     27.61647  19.61159  14.02555  3     1045
siesta:     29.30210  21.56934  17.63871  2     1046
siesta:     28.89392  23.35513  16.63338  1     1047
siesta:     27.61458  21.02321  18.66861  1     1048
siesta:     31.38080  22.16272  19.59269  2     1049
siesta:     31.95150  19.99709  20.81345  3     1050
siesta:     33.50864  22.76743  18.30200  3     1051
siesta:     30.91593  24.18850  21.64682  2     1052
siesta:     32.72440  24.43039  22.66538  1     1053
siesta:     30.57389  25.98752  20.68117  1     1054
siesta:     28.78054  23.83890  23.60836  2     1055
siesta:     26.55255  23.98063  22.36303  3     1056
siesta:     28.90526  21.44084  24.54377  3     1057
siesta:     28.54243  25.60013  25.91382  2     1058
siesta:     26.89648  26.79444  25.65871  1     1059
siesta:     28.15504  24.37559  27.53899  1     1060
siesta:     30.73452  27.35191  26.68105  2     1061
siesta:     31.32222  28.81456  24.65905  3     1062
siesta:     29.79910  29.03376  28.39882  3     1063
siesta:     33.22329  26.22941  27.72229  2     1064
siesta:     32.99652  24.18095  27.65426  1     1065
siesta:     34.73318  26.75475  26.40326  1     1066
siesta:     34.10579  26.86625  30.41137  2     1067
siesta:     32.47307  25.79477  32.07622  3     1068
siesta:     36.30354  25.55856  30.76475  3     1069
[...]
siesta:   1083   -0.297527   -0.002632   -0.664623
siesta:   1084   -0.326514   -0.351558    0.200195
siesta:   1085    0.326395    0.336615    1.005469
siesta:   1086    1.324664    0.916849   -0.825348
siesta:   1087   -1.867087   -0.174973   -0.764213
siesta:   1088    0.298926   -0.869903   -0.779499
siesta:   1089   -0.300356   -0.261967    0.288187
siesta:   1090    0.659446   -0.033654    0.566067
siesta:   1091   -0.099150    0.566764   -0.976560
siesta:   1092   -1.491307    0.127476    0.380246
siesta:   1093    1.272599    0.543080    0.844246
siesta:   1094    0.344658   -0.328270    0.267783
siesta:   1095    1.022822   -0.215503   -0.429704
siesta:   1096   -0.464839   -0.149019   -0.508388
siesta:   1097    0.421219    0.412111    1.510447
siesta:   1098    0.362896    0.021610   -1.458718
siesta:   1099   -1.509377    0.219152    0.448850
siesta:   1100   -0.362753   -0.960553   -0.460817
siesta:   1101   -0.005560   -0.305224    0.785341
siesta:   1102    0.625885   -0.027603   -0.023362
siesta:   1103   -1.513683   -0.328899   -1.447606
siesta:   1104   -0.565251    0.398872    1.886548
siesta:   1105    1.544969    0.585800   -0.810353
siesta:   1106    0.122593   -0.569008    0.879652
siesta:   1107    0.328911    0.593939    0.143693
siesta:   1108    0.117827   -0.195809   -0.798234
siesta:   1109    0.362957   -0.775652    0.737949
siesta:   1110   -0.633366    2.029472   -0.212538
siesta:   1111   -0.433285   -0.974901   -1.182068
siesta:   1112    0.005555    0.056788   -0.070398
siesta:   1113   -0.421268   -0.337674   -0.189461
siesta:   1114    0.401924   -0.276152    0.633731
siesta:   1115   -0.434004    0.099214   -0.679492
siesta:   1116   -0.448227   -1.603253    1.197185
siesta:   1117    1.492239    1.465022    0.552873
siesta:   1118   -0.150075   -0.123728   -0.005898
siesta:   1119    0.159800    0.758239   -0.033531
siesta:   1120   -0.296630    0.073143   -0.569967
siesta:   1121    0.626871   -0.297611    0.741237
siesta:   1122   -0.988233    1.130503   -1.029489
siesta:   1123   -0.058193   -2.066019   -0.082049
siesta:   1124    0.168455   -0.071590   -0.560361
siesta:   1125    0.249995    0.016662    0.486268
siesta:   1126   -0.090572    0.616596    0.051075
siesta:   1127    0.219903   -0.422369   -1.213043
siesta:   1128    0.486917   -1.002971    0.355497
siesta:   1129   -0.901595    1.291348    0.929922
siesta:   1130   -0.082621    0.422725   -0.134024
siesta:   1131    0.231918   -0.108801   -0.257130
siesta:   1132   -0.086762   -0.500844    0.809644
siesta:   1133   -0.162841    0.283606    0.227530
siesta:   1134    0.536809    1.575788   -0.488657
siesta:   1135   -0.486049   -1.314020   -0.969479
siesta:   1136    0.112739   -0.076016    0.387577
siesta:   1137   -0.195658   -0.444418    0.465678
siesta:   1138    0.230849    0.588227    0.682422
siesta:   1139    0.468780    0.410432    0.174347
siesta:   1140    0.379909    1.277454   -1.136179
siesta:   1141   -0.720974   -1.620609   -0.718887
siesta:   1142    0.424134   -0.259900    0.222047
siesta:   1143   -0.445611   -0.422648   -0.143421
siesta:   1144    0.016342   -0.030061    0.581626
siesta:   1145   -0.098817   -0.042727   -0.731894
siesta:   1146   -0.977859    0.157063    1.712681
siesta:   1147    0.794091    0.577630   -0.339299
siesta:   1148   -0.080575   -0.666381   -0.752742
siesta:   1149    0.268123    0.732327   -0.247489
siesta:   1150    0.263988   -0.199792   -0.642445
siesta:   1151    0.389368   -0.118030   -0.976375
siesta:   1152   -0.547607   -1.761913    1.183697
siesta:   1153   -0.598073    1.504954    1.250497
siesta:   1154    0.729418    0.791406    0.273762
siesta:   1155    0.061242    0.332540   -0.217018
siesta:   1156    0.028201   -0.621552   -0.390446
siesta:   1157    0.423269    0.222754    1.664656
siesta:   1158   -0.624232    0.872383   -1.726098
siesta:   1159   -0.629962   -1.596601   -0.057030
siesta:   1160    0.384113   -0.266214   -0.252170
siesta:   1161    0.222420   -0.346930    0.374019
siesta:   1162    0.433724    0.724623    0.245823
siesta:   1163   -0.183092   -0.284818   -1.232956
siesta:   1164   -0.261566   -0.408310    1.458914
siesta:   1165    0.098844    1.252523   -0.365532
siesta:   1166    0.857885    0.127089   -0.723062
siesta:   1167    0.236353   -0.412589   -0.414357
siesta:   1168   -0.521403   -0.353612    0.330842
siesta:   1169    0.922146    0.482315   -0.254262
siesta:   1170   -0.809186   -1.263471   -0.969072
siesta:   1171   -1.122798    1.011561    1.335618
siesta:   1172    0.705159   -0.446950    0.154057
siesta:   1173    0.051178    0.152875   -0.027765
siesta:   1174    0.465581   -0.001655   -0.132150
siesta:   1175    0.552323   -1.444594    0.035519
siesta:   1176   -0.982142   -0.148410    0.878853
siesta:   1177    1.269247    1.356524   -0.640843
siesta:   1178    0.735688   -0.417631    0.576857
siesta:   1179   -0.245453   -0.369711    0.111531
siesta:   1180   -0.754235    0.656633   -0.688876
siesta:   1181   -0.033222    0.788852   -0.144922
siesta:   1182    1.615432   -0.756717    1.783281
siesta:   1183   -0.637387   -0.815733   -0.730306
siesta:   1184    0.222316    0.680339    0.370244
siesta:   1185   -0.229313   -0.124966   -0.517182
siesta:   1186   -0.083976    0.538638   -0.048818
siesta:   1187   -0.743358    0.526319    1.188939
siesta:   1188    0.304803   -1.629759    0.541838
siesta:   1189    0.302565    0.969921   -1.973190
siesta:   1190    0.029013    0.184608   -0.241626
siesta:   1191   -0.059352   -0.270732    0.836326
siesta:   1192    0.515672   -0.590421   -0.273615
siesta:   1193    0.010856   -0.561522   -0.507881
siesta:   1194   -1.033973    0.708258   -1.273780
siesta:   1195   -0.158867    0.401502    1.455047
siesta:   1196    0.217312   -0.638415   -0.004206
siesta:   1197   -0.003257    0.486782    0.083462
siesta:   1198    0.437762   -0.392183    0.133235
siesta:   1199   -0.191956   -1.265096    0.037404
siesta:   1200   -1.286331    1.093352   -0.593566
siesta:   1201    1.754352    0.116658    0.364876
siesta:   1202   -0.356528   -0.623995    0.127436
siesta:   1203   -0.764002   -0.177195   -0.061080
siesta:   1204    0.129908    0.585862   -0.483967
siesta:   1205   -0.912804    0.304952   -0.589752
siesta:   1206    1.788536    0.649631   -0.537231
siesta:   1207    0.008631   -0.684953    1.361295
siesta:   1208    0.427273    0.375104   -0.321123
siesta:   1209    0.426366   -0.653781    0.360715
siesta:   1210   -1.067092   -0.438912    0.374162
siesta:   1211    0.026659   -0.747788    0.128203
siesta:   1212   -1.540331   -0.836464   -0.244064
siesta:   1213    0.716400    2.281289   -0.249522
siesta:   1214    0.647382   -0.755955    0.255222
siesta:   1215    0.098080    0.567108   -0.600648
siesta:   1216    0.706312    0.040278    0.236818
siesta:   1217    0.159086    0.694489   -0.331068
siesta:   1218   -0.260072   -1.497707    1.838308
siesta:   1219   -1.236783    0.182987   -1.144200
siesta:   1220   -0.612875    0.669774    0.036177
siesta:   1221    0.119237    0.557558   -0.572394
siesta:   1222    0.722800   -0.219168    0.220580
siesta:   1223   -0.895598   -0.222416   -0.110068
siesta:   1224    1.117950    0.308293   -1.085656
siesta:   1225    0.356170   -1.104023    1.415916
siesta:   1226   -0.714140    0.280167   -0.098591
siesta:   1227   -0.549935    0.088908    0.369781
siesta:   1228   -0.388078    0.463484   -0.357646
siesta:   1229    0.085450    0.415459   -0.078335
siesta:   1230    0.740416    0.113121   -1.222122
siesta:   1231    0.633091   -1.615433    1.411214
siesta:   1232    0.290516    0.252908    0.697400
siesta:   1233   -0.682476    0.183603    0.754506
siesta:   1234   -0.366051    0.595498   -0.805346
siesta:   1235    0.664634   -0.332682    0.697797
siesta:   1236   -1.808771    0.317190   -0.237334
siesta:   1237    1.330316   -0.261932   -1.257535
siesta:   1238   -0.003736    0.064431   -0.784851
siesta:   1239    0.688698   -0.200985   -0.094793
siesta:   1240    0.056545    0.092893    1.184702
siesta:   1241   -0.138325    0.391825   -0.742276
siesta:   1242    1.014853   -0.961413    0.476910
siesta:   1243   -1.768831    0.904427    1.191094
siesta:   1244   -0.281542    0.710200   -0.518179
siesta:   1245    0.223550    0.313863   -0.609570
siesta:   1246    0.426344   -1.059606   -0.122839
siesta:   1247    1.932148    0.123577    0.761923
siesta:   1248   -0.088376   -0.394760   -1.294729
siesta:   1249   -0.855205   -0.522466    1.204882
siesta:   1250   -0.796490    1.076114   -0.112058
siesta:   1251    0.133625    0.106827    0.142510
siesta:   1252   -0.552542   -0.690637    0.644465
siesta:   1253    0.165524   -0.062473    0.780216
siesta:   1254   -0.814259   -0.677861    0.565786
siesta:   1255    0.148013    0.834912    0.451838
siesta:   1256   -0.138596   -0.250164    0.415223
siesta:   1257    0.003747    0.249859    0.513746
siesta:   1258    0.209302   -0.029716   -0.051820
siesta:   1259   -0.451359    0.954745    0.573034
siesta:   1260    0.053772   -0.020163    0.181282
siesta:   1261   -0.052410   -0.137378   -0.027045
siesta:   1262   -0.819350   -0.439968    0.309630
siesta:   1263    0.379919   -0.028356   -1.139092
siesta:   1264   -0.180771    0.064815   -0.197193
siesta:   1265    0.798748   -0.171828    0.241864
siesta:   1266   -0.028336    0.722832   -0.256839
siesta:   1267   -0.234676   -0.880964    0.548628
siesta:   1268    0.814085    0.325071    0.239985
siesta:   1269   -0.571786    0.118184    0.005113
siesta:   1270   -0.438014    0.543029   -0.251459
siesta:   1271    0.076626    0.279195    0.220401
siesta:   1272    0.095965   -0.296380   -0.161214
siesta:   1273    0.304342    0.151381    0.448706
siesta:   1274   -0.196226    0.206117    0.051910
siesta:   1275    0.290292    0.105016    0.212954
siesta:   1276   -0.007825    0.035088    0.006121
siesta:   1277   -0.081647    0.196301    0.213190
siesta:   1278    0.312975    0.231564   -0.645441
siesta:   1279   -0.064468    0.121644   -0.075740
siesta:   1280    0.491108    0.400431   -0.462524
siesta:   1281   -0.557172   -1.200777   -0.166843
siesta:   1282    0.868326   -0.367698   -0.622109
siesta: ----------------------------------------
siesta:    Tot   -0.036269    0.035940   -0.023637

siesta: Stress tensor (static) (eV/Ang**3):
siesta:    -0.040263    0.000106    0.002901
siesta:     0.000106   -0.033290    0.000921
siesta:     0.002901    0.000921   -0.043777

siesta: Cell volume =      13041.289483 Ang**3

siesta: Pressure (static):
siesta:                Solid            Molecule  Units
siesta:           0.00042596          0.00034613  Ry/Bohr**3
siesta:           0.03910999          0.03178062  eV/Ang**3
siesta:          62.66178684         50.91871812  kBar
(Free)E+ p_basis*V_orbitals  =     -374494.287523
(Free)Eharris+ p_basis*V_orbitals  =     -374494.345721

Optical: Performing optical calculation: 

Optical: Polarization type       = polarized   
Optical: Minimum of energy range =   0.0001 Ry 
Optical: Maximum of energy range =   7.3498 Ry 
Optical: Gaussian broadening     =   0.0037 Ry 
Optical: Scissor operator        =   0.0000 Ry 
Optical: Number of bands         =    13386
Optical: Number of electrons     =     5346
Optical: BZ mesh dimensions      =    1   1   1

Optical: electric field direction
Optical:      0.00000     1.00000     0.00000

Optical: Checking f-sum rule  0.887204
Optical: For insulators and closed shell systems
Optical: this number should be close to 1 if an enough
Optical: number of unoccupied bands have been included

* Maximum dynamic memory allocated : Node    0 =   423 MB
* Maximum dynamic memory allocated : Node    1 =   425 MB
* Maximum dynamic memory allocated : Node    2 =   423 MB
* Maximum dynamic memory allocated : Node    3 =   421 MB
* Maximum dynamic memory allocated : Node    4 =   418 MB
* Maximum dynamic memory allocated : Node    5 =   422 MB
* Maximum dynamic memory allocated : Node    6 =   421 MB
* Maximum dynamic memory allocated : Node    7 =   422 MB
* Maximum dynamic memory allocated : Node    8 =   420 MB
* Maximum dynamic memory allocated : Node    9 =   422 MB
* Maximum dynamic memory allocated : Node   10 =   422 MB
* Maximum dynamic memory allocated : Node   11 =   424 MB
* Maximum dynamic memory allocated : Node   12 =   420 MB
* Maximum dynamic memory allocated : Node   13 =   421 MB
* Maximum dynamic memory allocated : Node   14 =   422 MB
* Maximum dynamic memory allocated : Node   15 =   420 MB
* Maximum dynamic memory allocated : Node   16 =   423 MB
* Maximum dynamic memory allocated : Node   17 =   422 MB
* Maximum dynamic memory allocated : Node   18 =   419 MB
* Maximum dynamic memory allocated : Node   19 =   421 MB
* Maximum dynamic memory allocated : Node   20 =   422 MB
* Maximum dynamic memory allocated : Node   21 =   421 MB
* Maximum dynamic memory allocated : Node   22 =   422 MB
* Maximum dynamic memory allocated : Node   23 =   425 MB
* Maximum dynamic memory allocated : Node   24 =   428 MB
* Maximum dynamic memory allocated : Node   25 =   422 MB
* Maximum dynamic memory allocated : Node   26 =   415 MB
* Maximum dynamic memory allocated : Node   27 =   420 MB
* Maximum dynamic memory allocated : Node   28 =   424 MB
* Maximum dynamic memory allocated : Node   29 =   422 MB
* Maximum dynamic memory allocated : Node   30 =   426 MB
* Maximum dynamic memory allocated : Node   31 =   424 MB
* Maximum dynamic memory allocated : Node   32 =   425 MB
* Maximum dynamic memory allocated : Node   33 =   424 MB
* Maximum dynamic memory allocated : Node   34 =   416 MB
* Maximum dynamic memory allocated : Node   35 =   424 MB
* Maximum dynamic memory allocated : Node   36 =   418 MB
* Maximum dynamic memory allocated : Node   37 =   415 MB
* Maximum dynamic memory allocated : Node   38 =   419 MB
* Maximum dynamic memory allocated : Node   39 =   416 MB
* Maximum dynamic memory allocated : Node   40 =   428 MB
* Maximum dynamic memory allocated : Node   41 =   423 MB
* Maximum dynamic memory allocated : Node   42 =   422 MB
* Maximum dynamic memory allocated : Node   43 =   424 MB
* Maximum dynamic memory allocated : Node   44 =   415 MB
* Maximum dynamic memory allocated : Node   45 =   414 MB
* Maximum dynamic memory allocated : Node   46 =   404 MB
* Maximum dynamic memory allocated : Node   47 =   401 MB
* Maximum dynamic memory allocated : Node   48 =   407 MB
* Maximum dynamic memory allocated : Node   49 =   405 MB
* Maximum dynamic memory allocated : Node   50 =   400 MB
* Maximum dynamic memory allocated : Node   51 =   401 MB
* Maximum dynamic memory allocated : Node   52 =   404 MB
* Maximum dynamic memory allocated : Node   53 =   403 MB
* Maximum dynamic memory allocated : Node   54 =   404 MB
* Maximum dynamic memory allocated : Node   55 =   404 MB
* Maximum dynamic memory allocated : Node   56 =   406 MB
* Maximum dynamic memory allocated : Node   57 =   407 MB
* Maximum dynamic memory allocated : Node   58 =   406 MB
* Maximum dynamic memory allocated : Node   59 =   403 MB
* Maximum dynamic memory allocated : Node   60 =   404 MB
* Maximum dynamic memory allocated : Node   61 =   405 MB
* Maximum dynamic memory allocated : Node   62 =   406 MB
* Maximum dynamic memory allocated : Node   63 =   407 MB

* Maximum memory occured during rdiag                         

timer: CPU execution times:
timer:  Routine       Calls   Time/call    Tot.time        %
timer:  siesta            115732069.87515732069.875   100.00
timer:  Setup             1      79.437      79.437     0.00
timer:  bands             1       0.014       0.014     0.00
timer:  writewave         1       0.057       0.057     0.00
timer:  KSV_init          1       0.005       0.005     0.00
timer:  IterMD            1  278628.591  278628.591     1.77
timer:  hsparse           1     108.286     108.286     0.00
timer:  overlap           1     116.432     116.432     0.00
timer:  IterSCF          23   11733.424  269868.763     1.72
timer:  kinefsm           2      65.277     130.554     0.00
timer:  nlefsm            2     533.976    1067.952     0.01
timer:  DHSCF            24    5565.852  133580.452     0.85
timer:  DHSCF1            1      72.744      72.744     0.00
timer:  DHSCF2            1    3944.453    3944.453     0.03
timer:  REORD           146       0.086      12.611     0.00
timer:  POISON           25     172.755    4318.869     0.03
timer:  DHSCF3           24    5297.545  127141.069     0.81
timer:  rhoofd           24    2263.349   54320.371     0.35
timer:  cellXC           24      72.555    1741.328     0.01
timer:  vmat             24    2473.545   59365.083     0.38
timer:  MolMec            2       0.106       0.211     0.00
timer:  diagon           23    6060.222  139385.116     0.89
timer:  r-eigvec         23    5532.878  127256.196     0.81
timer:  r-buildHS        23       0.945      21.729     0.00
timer:  rdiag            24    5525.883  132621.192     0.84
timer:  rdiag1           24     173.491    4163.777     0.03
timer:  rdiag2           24    1067.329   25615.890     0.16
timer:  rdiag3           24    3482.613   83582.722     0.53
timer:  rdiag4           24     374.585    8990.047     0.06
timer:  r-buildD         23     526.689   12113.849     0.08
timer:  DHSCF4            1    2415.733    2415.733     0.02
timer:  dfscf             1    2235.082    2235.082     0.01
timer:  overfsm           1      15.568      15.568     0.00
timer:  optical           115453299.79715453299.797    98.23
timer:  phirphiopt        1    2535.944    2535.944     0.02
timer:  transrate         115445046.91115445046.911    98.18
  

elaps: ELAPSED times:
elaps:  Routine       Calls   Time/call    Tot.time        %
elaps:  siesta            1   31655.660   31655.660   100.00
elaps:  Setup             1       1.252       1.252     0.00
elaps:  bands             1       0.000       0.000     0.00
elaps:  writewave         1       0.001       0.001     0.00
elaps:  KSV_init          1       0.000       0.000     0.00
elaps:  IterMD            1    4368.277    4368.277    13.80
elaps:  hsparse           1       1.747       1.747     0.01
elaps:  overlap           1       1.629       1.629     0.01
elaps:  IterSCF          23     183.970    4231.311    13.37
elaps:  kinefsm           2       0.924       1.848     0.01
elaps:  nlefsm            2       8.539      17.078     0.05
elaps:  DHSCF            24      87.213    2093.117     6.61
elaps:  DHSCF1            1       1.015       1.015     0.00
elaps:  DHSCF2            1      61.941      61.941     0.20
elaps:  REORD           146       0.001       0.200     0.00
elaps:  POISON           25       2.640      65.990     0.21
elaps:  DHSCF3           24      83.001    1992.018     6.29
elaps:  rhoofd           24      35.443     850.623     2.69
elaps:  cellXC           24       1.137      27.294     0.09
elaps:  vmat             24      38.765     930.364     2.94
elaps:  MolMec            2       0.002       0.003     0.00
elaps:  diagon           23      95.058    2186.329     6.91
elaps:  r-eigvec         23      86.436    1988.018     6.28
elaps:  r-buildHS        23       0.018       0.424     0.00
elaps:  rdiag            24      86.327    2071.838     6.54
elaps:  rdiag1           24       2.804      67.299     0.21
elaps:  rdiag2           24      16.764     402.339     1.27
elaps:  rdiag3           24      54.608    1310.597     4.14
elaps:  rdiag4           24       5.511     132.265     0.42
elaps:  r-buildD         23       8.613     198.097     0.63
elaps:  DHSCF4            1      38.065      38.065     0.12
elaps:  dfscf             1      35.223      35.223     0.11
elaps:  overfsm           1       0.244       0.244     0.00
elaps:  optical           1   27285.578   27285.578    86.19
elaps:  phirphiopt        1      40.285      40.285     0.13
elaps:  transrate         1   27155.439   27155.439    85.78
  
>> End of run:   2-SEP-2014   3:38:17
