#            ENERGY              s1              s2              total
        -30.30000000        0.00000000        0.00000000        0.00000000
        -30.23933934        0.00000230        0.00000224        0.00000454
        -30.17867868        0.00007351        0.00007143        0.00014494
        -30.11801802        0.00108608        0.00105930        0.00214539
        -30.05735736        0.00792644        0.00776670        0.01569314
        -29.99669670        0.02975500        0.02934869        0.05910369
        -29.93603604        0.06258165        0.06225479        0.12483644
        -29.87537538        0.08528611        0.08542877        0.17071487
        -29.81471471        0.08788983        0.08814540        0.17603523
        -29.75405405        0.08431304        0.08436265        0.16867569
        -29.69339339        0.09696644        0.09695237        0.19391881
        -29.63273273        0.11337661        0.11350761        0.22688423
        -29.57207207        0.11380810        0.11393794        0.22774604
        -29.51141141        0.10206118        0.10198107        0.20404225
        -29.45075075        0.08365598        0.08325898        0.16691496
        -29.39009009        0.07554941        0.07499138        0.15054079
        -29.32942943        0.07990112        0.07986879        0.15976990
        -29.26876877        0.07701470        0.07747076        0.15448546
        -29.20810811        0.05992365        0.06018885        0.12011250
        -29.14744745        0.03740082        0.03743589        0.07483670
        -29.08678679        0.02226137        0.02230557        0.04456695
        -29.02612613        0.01323633        0.01332430        0.02656063
        -28.96546547        0.00589325        0.00595468        0.01184792
        -28.90480480        0.00159239        0.00161277        0.00320516
        -28.84414414        0.00024252        0.00024593        0.00048844
        -28.78348348        0.00002046        0.00002074        0.00004119
        -28.72282282        0.00000094        0.00000095        0.00000190
        -28.66216216        0.00000002        0.00000002        0.00000003
        -28.60150150        0.00000000        0.00000000        0.00000000
        -28.54084084        0.00000000        0.00000000        0.00000000
        -28.48018018        0.00000000        0.00000000        0.00000000
        -28.41951952        0.00000000        0.00000000        0.00000000
        -28.35885886        0.00000000        0.00000000        0.00000000
        -28.29819820        0.00000000        0.00000000        0.00000000
        -28.23753754        0.00000000        0.00000000        0.00000000
        -28.17687688        0.00000000        0.00000000        0.00000000
        -28.11621622        0.00000000        0.00000000        0.00000000
        -28.05555556        0.00000000        0.00000000        0.00000000
        -27.99489489        0.00000000        0.00000000        0.00000000
        -27.93423423        0.00000000        0.00000000        0.00000000
        -27.87357357        0.00000000        0.00000000        0.00000000
        -27.81291291        0.00000000        0.00000000        0.00000000
        -27.75225225        0.00000000        0.00000000        0.00000000
        -27.69159159        0.00000000        0.00000000        0.00000000
        -27.63093093        0.00000000        0.00000000        0.00000000
        -27.57027027        0.00000000        0.00000000        0.00000000
        -27.50960961        0.00000000        0.00000000        0.00000000
        -27.44894895        0.00000000        0.00000000        0.00000000
        -27.38828829        0.00000000        0.00000000        0.00000000
        -27.32762763        0.00000000        0.00000000        0.00000000
        -27.26696697        0.00000000        0.00000000        0.00000000
        -27.20630631        0.00000000        0.00000000        0.00000000
        -27.14564565        0.00000000        0.00000000        0.00000000
        -27.08498498        0.00000000        0.00000000        0.00000000
        -27.02432432        0.00000000        0.00000000        0.00000000
        -26.96366366        0.00000000        0.00000000        0.00000000
        -26.90300300        0.00000000        0.00000000        0.00000000
        -26.84234234        0.00000000        0.00000000        0.00000000
        -26.78168168        0.00000000        0.00000000        0.00000000
        -26.72102102        0.00000000        0.00000000        0.00000000
        -26.66036036        0.00000000        0.00000000        0.00000000
        -26.59969970        0.00000000        0.00000000        0.00000000
        -26.53903904        0.00000000        0.00000000        0.00000000
        -26.47837838        0.00000000        0.00000000        0.00000000
        -26.41771772        0.00000000        0.00000000        0.00000000
        -26.35705706        0.00000000        0.00000000        0.00000000
        -26.29639640        0.00000000        0.00000000        0.00000000
        -26.23573574        0.00000000        0.00000000        0.00000000
        -26.17507508        0.00000000        0.00000000        0.00000000
        -26.11441441        0.00000000        0.00000000        0.00000000
        -26.05375375        0.00000000        0.00000000        0.00000000
        -25.99309309        0.00000000        0.00000000        0.00000000
        -25.93243243        0.00000000        0.00000000        0.00000000
        -25.87177177        0.00000000        0.00000000        0.00000000
        -25.81111111        0.00000000        0.00000000        0.00000000
        -25.75045045        0.00000000        0.00000000        0.00000000
        -25.68978979        0.00000000        0.00000000        0.00000000
        -25.62912913        0.00000000        0.00000000        0.00000000
        -25.56846847        0.00000000        0.00000000        0.00000000
        -25.50780781        0.00000000        0.00000000        0.00000000
        -25.44714715        0.00000000        0.00000000        0.00000000
        -25.38648649        0.00000000        0.00000000        0.00000000
        -25.32582583        0.00000000        0.00000000        0.00000000
        -25.26516517        0.00000000        0.00000000        0.00000000
        -25.20450450        0.00000000        0.00000000        0.00000000
        -25.14384384        0.00000000        0.00000000        0.00000000
        -25.08318318        0.00000000        0.00000000        0.00000000
        -25.02252252        0.00000000        0.00000000        0.00000000
        -24.96186186        0.00000000        0.00000000        0.00000000
        -24.90120120        0.00000000        0.00000000        0.00000000
        -24.84054054        0.00000000        0.00000000        0.00000000
        -24.77987988        0.00000000        0.00000000        0.00000000
        -24.71921922        0.00000000        0.00000000        0.00000000
        -24.65855856        0.00000000        0.00000000        0.00000000
        -24.59789790        0.00000000        0.00000000        0.00000000
        -24.53723724        0.00000000        0.00000000        0.00000000
        -24.47657658        0.00000000        0.00000000        0.00000000
        -24.41591592        0.00000000        0.00000000        0.00000000
        -24.35525526        0.00000000        0.00000000        0.00000000
        -24.29459459        0.00000000        0.00000000        0.00000000
        -24.23393393        0.00000000        0.00000000        0.00000000
        -24.17327327        0.00000000        0.00000000        0.00000000
        -24.11261261        0.00000000        0.00000000        0.00000000
        -24.05195195        0.00000000        0.00000000        0.00000000
        -23.99129129        0.00000000        0.00000000        0.00000000
        -23.93063063        0.00000000        0.00000000        0.00000000
        -23.86996997        0.00000000        0.00000000        0.00000000
        -23.80930931        0.00000000        0.00000000        0.00000000
        -23.74864865        0.00000000        0.00000000        0.00000000
        -23.68798799        0.00000000        0.00000000        0.00000000
        -23.62732733        0.00000000        0.00000000        0.00000000
        -23.56666667        0.00000000        0.00000000        0.00000000
        -23.50600601        0.00000000        0.00000000        0.00000000
        -23.44534535        0.00000000        0.00000000        0.00000000
        -23.38468468        0.00000000        0.00000000        0.00000000
        -23.32402402        0.00000000        0.00000000        0.00000000
        -23.26336336        0.00000000        0.00000000        0.00000000
        -23.20270270        0.00000000        0.00000000        0.00000000
        -23.14204204        0.00000000        0.00000000        0.00000000
        -23.08138138        0.00000000        0.00000000        0.00000000
        -23.02072072        0.00000000        0.00000000        0.00000000
        -22.96006006        0.00000000        0.00000000        0.00000000
        -22.89939940        0.00000000        0.00000000        0.00000000
        -22.83873874        0.00000000        0.00000000        0.00000000
        -22.77807808        0.00000000        0.00000000        0.00000000
        -22.71741742        0.00000000        0.00000000        0.00000000
        -22.65675676        0.00000000        0.00000000        0.00000000
        -22.59609610        0.00000000        0.00000000        0.00000000
        -22.53543544        0.00000000        0.00000000        0.00000000
        -22.47477477        0.00000000        0.00000000        0.00000000
        -22.41411411        0.00000000        0.00000000        0.00000000
        -22.35345345        0.00000000        0.00000000        0.00000000
        -22.29279279        0.00000000        0.00000000        0.00000000
        -22.23213213        0.00000000        0.00000000        0.00000000
        -22.17147147        0.00000000        0.00000000        0.00000000
        -22.11081081        0.00000000        0.00000000        0.00000000
        -22.05015015        0.00000000        0.00000000        0.00000000
        -21.98948949        0.00000000        0.00000000        0.00000000
        -21.92882883        0.00000000        0.00000000        0.00000000
        -21.86816817        0.00000000        0.00000000        0.00000000
        -21.80750751        0.00000000        0.00000000        0.00000000
        -21.74684685        0.00000000        0.00000000        0.00000000
        -21.68618619        0.00000000        0.00000000        0.00000000
        -21.62552553        0.00000000        0.00000000        0.00000000
        -21.56486486        0.00000000        0.00000000        0.00000000
        -21.50420420        0.00000000        0.00000000        0.00000000
        -21.44354354        0.00000000        0.00000000        0.00000000
        -21.38288288        0.00000000        0.00000000        0.00000000
        -21.32222222        0.00000000        0.00000000        0.00000000
        -21.26156156        0.00000000        0.00000000        0.00000000
        -21.20090090        0.00000000        0.00000000        0.00000000
        -21.14024024        0.00000000        0.00000000        0.00000000
        -21.07957958        0.00000000        0.00000000        0.00000000
        -21.01891892        0.00000000        0.00000000        0.00000000
        -20.95825826        0.00000000        0.00000000        0.00000000
        -20.89759760        0.00000000        0.00000000        0.00000000
        -20.83693694        0.00000000        0.00000000        0.00000000
        -20.77627628        0.00000002        0.00000002        0.00000003
        -20.71561562        0.00000070        0.00000070        0.00000140
        -20.65495495        0.00001445        0.00001445        0.00002890
        -20.59429429        0.00017548        0.00017529        0.00035077
        -20.53363363        0.00126069        0.00125686        0.00251755
        -20.47297297        0.00525285        0.00522782        0.01048067
        -20.41231231        0.01259611        0.01253091        0.02512702
        -20.35165165        0.01783424        0.01776897        0.03560321
        -20.29099099        0.01686255        0.01682325        0.03368580
        -20.23033033        0.01733648        0.01723333        0.03456981
        -20.16966967        0.02616049        0.02601507        0.05217556
        -20.10900901        0.03533923        0.03531520        0.07065443
        -20.04834835        0.03646839        0.03651848        0.07298687
        -19.98768769        0.03174046        0.03172835        0.06346881
        -19.92702703        0.02666554        0.02660022        0.05326576
        -19.86636637        0.02343305        0.02336303        0.04679609
        -19.80570571        0.02182038        0.02177432        0.04359470
        -19.74504505        0.02099854        0.02098386        0.04198240
        -19.68438438        0.02054327        0.02053653        0.04107980
        -19.62372372        0.02051655        0.02049754        0.04101409
        -19.56306306        0.02049802        0.02046706        0.04096508
        -19.50240240        0.02047385        0.02044636        0.04092022
        -19.44174174        0.02093801        0.02092280        0.04186081
        -19.38108108        0.02218849        0.02217602        0.04436452
        -19.32042042        0.02324265        0.02322795        0.04647060
        -19.25975976        0.02248598        0.02247324        0.04495921
        -19.19909910        0.02039353        0.02037818        0.04077172
        -19.13843844        0.01884909        0.01881968        0.03766877
        -19.07777778        0.01860443        0.01856085        0.03716528
        -19.01711712        0.01833173        0.01828621        0.03661794
        -18.95645646        0.01766083        0.01762089        0.03528172
        -18.89579580        0.01793859        0.01790398        0.03584257
        -18.83513514        0.01926491        0.01923147        0.03849639
        -18.77447447        0.02004822        0.02001350        0.04006172
        -18.71381381        0.01979178        0.01975508        0.03954686
        -18.65315315        0.01952520        0.01948609        0.03901130
        -18.59249249        0.01951979        0.01948391        0.03900370
        -18.53183183        0.01940665        0.01936851        0.03877516
        -18.47117117        0.01993626        0.01988419        0.03982045
        -18.41051051        0.02163744        0.02157982        0.04321726
        -18.34984985        0.02378036        0.02372029        0.04750065
        -18.28918919        0.02485583        0.02477597        0.04963180
        -18.22852853        0.02486926        0.02477049        0.04963975
        -18.16786787        0.02435137        0.02427300        0.04862437
        -18.10720721        0.02109413        0.02105039        0.04214452
        -18.04654655        0.01654406        0.01652845        0.03307250
        -17.98588589        0.01333396        0.01333161        0.02666557
        -17.92522523        0.01042388        0.01041862        0.02084250
        -17.86456456        0.00746771        0.00747206        0.01493978
        -17.80390390        0.00471722        0.00472970        0.00944692
        -17.74324324        0.00211800        0.00212441        0.00424240
        -17.68258258        0.00054088        0.00054203        0.00108291
        -17.62192192        0.00007048        0.00007054        0.00014102
        -17.56126126        0.00000450        0.00000450        0.00000899
        -17.50060060        0.00000014        0.00000014        0.00000028
        -17.43993994        0.00000000        0.00000000        0.00000000
        -17.37927928        0.00000000        0.00000000        0.00000000
        -17.31861862        0.00000238        0.00000238        0.00000475
        -17.25795796        0.00006856        0.00006860        0.00013716
        -17.19729730        0.00095990        0.00095945        0.00191936
        -17.13663664        0.00664918        0.00663710        0.01328628
        -17.07597598        0.02364838        0.02356547        0.04721385
        -17.01531532        0.04608486        0.04586317        0.09194803
        -16.95465465        0.05472912        0.05450220        0.10923132
        -16.89399399        0.04701768        0.04696554        0.09398322
        -16.83333333        0.03941431        0.03943534        0.07884965
        -16.77267267        0.04144102        0.04140762        0.08284865
        -16.71201201        0.04751186        0.04742462        0.09493648
        -16.65135135        0.05147564        0.05137631        0.10285195
        -16.59069069        0.05155882        0.05149026        0.10304908
        -16.53003003        0.04983652        0.04977428        0.09961080
        -16.46936937        0.05050703        0.05041524        0.10092227
        -16.40870871        0.05154027        0.05142444        0.10296472
        -16.34804805        0.05211473        0.05199842        0.10411314
        -16.28738739        0.05176260        0.05167827        0.10344087
        -16.22672673        0.05008600        0.05002542        0.10011142
        -16.16606607        0.05141304        0.05133112        0.10274416
        -16.10540541        0.05938715        0.05927068        0.11865783
        -16.04474474        0.06514144        0.06500970        0.13015115
        -15.98408408        0.06098983        0.06082766        0.12181749
        -15.92342342        0.05742746        0.05720985        0.11463732
        -15.86276276        0.05923855        0.05901901        0.11825756
        -15.80210210        0.06003654        0.05984173        0.11987827
        -15.74144144        0.06419452        0.06398511        0.12817963
        -15.68078078        0.07364983        0.07343403        0.14708386
        -15.62012012        0.08378950        0.08355482        0.16734432
        -15.55945946        0.09527079        0.09499306        0.19026385
        -15.49879880        0.10674607        0.10652039        0.21326646
        -15.43813814        0.11558523        0.11544498        0.23103021
        -15.37747748        0.13122376        0.13100723        0.26223099
        -15.31681682        0.15447039        0.15411284        0.30858324
        -15.25615616        0.17240888        0.17199345        0.34440233
        -15.19549550        0.17796134        0.17757046        0.35553180
        -15.13483483        0.17586531        0.17549514        0.35136045
        -15.07417417        0.17871564        0.17840024        0.35711588
        -15.01351351        0.18471412        0.18459049        0.36930461
        -14.95285285        0.18860729        0.18859413        0.37720142
        -14.89219219        0.19137128        0.19122873        0.38260001
        -14.83153153        0.18759397        0.18733071        0.37492468
        -14.77087087        0.16670463        0.16647714        0.33318177
        -14.71021021        0.13393127        0.13376495        0.26769622
        -14.64954955        0.10375185        0.10369878        0.20745063
        -14.58888889        0.06962540        0.06974625        0.13937165
        -14.52822823        0.03251562        0.03265667        0.06517229
        -14.46756757        0.01005162        0.01010773        0.02015935
        -14.40690691        0.00238553        0.00239675        0.00478228
        -14.34624625        0.00047204        0.00047374        0.00094578
        -14.28558559        0.00012057        0.00012107        0.00024165
        -14.22492492        0.00096759        0.00097132        0.00193891
        -14.16426426        0.00793299        0.00795417        0.01588716
        -14.10360360        0.03182946        0.03186654        0.06369601
        -14.04294294        0.06716698        0.06703453        0.13420151
        -13.98228228        0.10169621        0.10080286        0.20249908
        -13.92162162        0.16709074        0.16510309        0.33219384
        -13.86096096        0.24625275        0.24466101        0.49091376
        -13.80030030        0.28069535        0.28060361        0.56129896
        -13.73963964        0.30757458        0.30759251        0.61516709
        -13.67897898        0.34957810        0.34888424        0.69846234
        -13.61831832        0.36861616        0.36742367        0.73603984
        -13.55765766        0.36661726        0.36534775        0.73196501
        -13.49699700        0.36519431        0.36395774        0.72915205
        -13.43633634        0.35688616        0.35569880        0.71258496
        -13.37567568        0.32985519        0.32904199        0.65889718
        -13.31501502        0.29028634        0.28998505        0.58027139
        -13.25435435        0.26067290        0.26063173        0.52130462
        -13.19369369        0.25550869        0.25543607        0.51094476
        -13.13303303        0.26517242        0.26491813        0.53009054
        -13.07237237        0.27421665        0.27375469        0.54797134
        -13.01171171        0.27380160        0.27326169        0.54706328
        -12.95105105        0.25906817        0.25867116        0.51773933
        -12.89039039        0.22825757        0.22809108        0.45634865
        -12.82972973        0.20477713        0.20462367        0.40940080
        -12.76906907        0.21528444        0.21494740        0.43023184
        -12.70840841        0.24423450        0.24373702        0.48797153
        -12.64774775        0.24925186        0.24867180        0.49792365
        -12.58708709        0.22241176        0.22171830        0.44413006
        -12.52642643        0.19946340        0.19883066        0.39829406
        -12.46576577        0.19129405        0.19095342        0.38224747
        -12.40510511        0.17323200        0.17317839        0.34641040
        -12.34444444        0.14451406        0.14462257        0.28913663
        -12.28378378        0.12750462        0.12763848        0.25514310
        -12.22312312        0.11450389        0.11452919        0.22903308
        -12.16246246        0.11717528        0.11691329        0.23408857
        -12.10180180        0.14876461        0.14806746        0.29683207
        -12.04114114        0.15599305        0.15504063        0.31103368
        -11.98048048        0.13478791        0.13365350        0.26844141
        -11.91981982        0.15605976        0.15424606        0.31030582
        -11.85915916        0.23135766        0.22889419        0.46025184
        -11.79849850        0.29125003        0.28921377        0.58046380
        -11.73783784        0.29903123        0.29804555        0.59707678
        -11.67717718        0.30634233        0.30585039        0.61219272
        -11.61651652        0.35122064        0.35040883        0.70162947
        -11.55585586        0.42059287        0.41909141        0.83968428
        -11.49519520        0.50672401        0.50507418        1.01179819
        -11.43453453        0.57952548        0.57855645        1.15808193
        -11.37387387        0.56903484        0.56838899        1.13742383
        -11.31321321        0.45183975        0.45096764        0.90280739
        -11.25255255        0.31878375        0.31774072        0.63652447
        -11.19189189        0.26280825        0.26151863        0.52432689
        -11.13123123        0.25672938        0.25519451        0.51192389
        -11.07057057        0.22560246        0.22437809        0.44998055
        -11.00990991        0.18590813        0.18538944        0.37129757
        -10.94924925        0.21282216        0.21253396        0.42535612
        -10.88858859        0.31728239        0.31659532        0.63387770
        -10.82792793        0.43095388        0.42938739        0.86034127
        -10.76726727        0.45105540        0.44910037        0.90015577
        -10.70660661        0.35025313        0.34829339        0.69854652
        -10.64594595        0.31068788        0.30797622        0.61866410
        -10.58528529        0.43340162        0.43029387        0.86369550
        -10.52462462        0.58589627        0.58323326        1.16912952
        -10.46396396        0.65932725        0.65610980        1.31543706
        -10.40330330        0.66008778        0.65417358        1.31426136
        -10.34264264        0.64045045        0.63181689        1.27226735
        -10.28198198        0.62458220        0.61651204        1.24109425
        -10.22132132        0.60450451        0.59985709        1.20436160
        -10.16066066        0.58067680        0.57976915        1.16044595
        -10.10000000        0.55995544        0.56028524        1.12024068
        -10.03933934        0.59185662        0.59005684        1.18191346
         -9.97867868        0.76568809        0.76057507        1.52626316
         -9.91801802        1.05842268        1.05205181        2.11047448
         -9.85735736        1.22384627        1.22026580        2.44411208
         -9.79669670        1.16214582        1.16102236        2.32316819
         -9.73603604        1.04722977        1.04469870        2.09192846
         -9.67537538        1.00156806        0.99653052        1.99809858
         -9.61471471        1.03503925        1.02922999        2.06426925
         -9.55405405        1.07331377        1.06857707        2.14189085
         -9.49339339        1.03818613        1.03356813        2.07175426
         -9.43273273        0.96113502        0.95524766        1.91638267
         -9.37207207        0.93519970        0.92905345        1.86425315
         -9.31141141        1.00772644        1.00179969        2.00952613
         -9.25075075        1.11705139        1.11020117        2.22725256
         -9.19009009        1.20442034        1.19639133        2.40081168
         -9.12942943        1.27826598        1.27028773        2.54855372
         -9.06876877        1.32404066        1.31701919        2.64105985
         -9.00810811        1.33136448        1.32388870        2.65525318
         -8.94744745        1.35936421        1.35068117        2.71004538
         -8.88678679        1.39936037        1.39128914        2.79064952
         -8.82612613        1.39181454        1.38475385        2.77656839
         -8.76546547        1.35391295        1.34715776        2.70107071
         -8.70480480        1.32392803        1.31816243        2.64209045
         -8.64414414        1.29575176        1.29144182        2.58719359
         -8.58348348        1.22764586        1.22483236        2.45247822
         -8.52282282        1.18951855        1.19438459        2.38390314
         -8.46216216        1.53507522        1.57064559        3.10572081
         -8.40150150        2.70732456        2.78109634        5.48842090
         -8.34084084        4.01203706        4.04569071        8.05772777
         -8.28018018        3.81881988        3.75141077        7.57023065
         -8.21951952        2.67565315        2.54568878        5.22134192
         -8.15885886        2.18166453        1.98495803        4.16662256
         -8.09819820        2.13865516        1.88713273        4.02578789
         -8.03753754        2.10328837        1.83445044        3.93773881
         -7.97687688        2.47650682        2.16074389        4.63725071
         -7.91621622        3.46442858        3.09684411        6.56127269
         -7.85555556        5.05533603        4.75153355        9.80686958
         -7.79489489        7.18869295        7.22122769       14.40992064
         -7.73423423       10.53092486       10.98544714       21.51637200
         -7.67357357       15.79624916       16.44888676       32.24513591
         -7.61291291       22.79921392       23.26135454       46.06056845
         -7.55225225       30.77401205       30.29166736       61.06567941
         -7.49159159       37.43867152       35.02228460       72.46095612
         -7.43093093       42.59065303       38.72513852       81.31579155
         -7.37027027       46.37234852       43.78784913       90.16019766
         -7.30960961       43.08479207       43.68223555       86.76702762
         -7.24894895       30.45254909       32.78527962       63.23782871
         -7.18828829       19.71145305       22.29537865       42.00683170
         -7.12762763       19.64892003       21.65837477       41.30729480
         -7.06696697       27.39581506       26.94196474       54.33777980
         -7.00630631       39.44774090       37.14790983       76.59565074
         -6.94564565       48.84565027       47.94311326       96.78876354
         -6.88498498       47.82366755       48.75163783       96.57530538
         -6.82432432       43.76211026       44.18660661       87.94871687
         -6.76366366       43.34791864       41.85454466       85.20246330
         -6.70300300       48.26240343       46.12369701       94.38610044
         -6.64234234       58.54098558       58.09565926      116.63664484
         -6.58168168       64.45340159       66.01765082      130.47105242
         -6.52102102       62.42765444       63.77134397      126.19899841
         -6.46036036       63.85743405       63.46713359      127.32456764
         -6.39969970       72.36119021       70.59833337      142.95952358
         -6.33903904       79.17666679       77.39203781      156.56870460
         -6.27837838       77.87306353       78.12710459      156.00016812
         -6.21771772       71.83241491       73.60434996      145.43676487
         -6.15705706       67.53617323       68.82127060      136.35744382