#            ENERGY              s1              s2              total
        -30.30000000        0.00000000        0.00000000        0.00000000
        -30.23933934        0.00000010        0.00000010        0.00000020
        -30.17867868        0.00000336        0.00000325        0.00000660
        -30.11801802        0.00005033        0.00004883        0.00009916
        -30.05735736        0.00037339        0.00036383        0.00073722
        -29.99669670        0.00141307        0.00138657        0.00279964
        -29.93603604        0.00291198        0.00288640        0.00579839
        -29.87537538        0.00372631        0.00373056        0.00745687
        -29.81471471        0.00356217        0.00357840        0.00714057
        -29.75405405        0.00309254        0.00309752        0.00619007
        -29.69339339        0.00292655        0.00292513        0.00585168
        -29.63273273        0.00275990        0.00276303        0.00552293
        -29.57207207        0.00220218        0.00220701        0.00440919
        -29.51141141        0.00159410        0.00159427        0.00318836
        -29.45075075        0.00107273        0.00106639        0.00213911
        -29.39009009        0.00078707        0.00077681        0.00156388
        -29.32942943        0.00077856        0.00077618        0.00155475
        -29.26876877        0.00076201        0.00076816        0.00153017
        -29.20810811        0.00061084        0.00061507        0.00122591
        -29.14744745        0.00034384        0.00034479        0.00068863
        -29.08678679        0.00012578        0.00012605        0.00025183
        -29.02612613        0.00003155        0.00003180        0.00006335
        -28.96546547        0.00000444        0.00000456        0.00000900
        -28.90480480       -0.00000027       -0.00000025       -0.00000052
        -28.84414414       -0.00000022       -0.00000022       -0.00000044
        -28.78348348       -0.00000003       -0.00000003       -0.00000007
        -28.72282282       -0.00000000       -0.00000000       -0.00000000
        -28.66216216       -0.00000000       -0.00000000       -0.00000000
        -28.60150150       -0.00000000       -0.00000000       -0.00000000
        -28.54084084       -0.00000000       -0.00000000       -0.00000000
        -28.48018018        0.00000000        0.00000000        0.00000000
        -28.41951952        0.00000000        0.00000000        0.00000000
        -28.35885886        0.00000000        0.00000000        0.00000000
        -28.29819820        0.00000000        0.00000000        0.00000000
        -28.23753754        0.00000000        0.00000000        0.00000000
        -28.17687688        0.00000000        0.00000000        0.00000000
        -28.11621622        0.00000000        0.00000000        0.00000000
        -28.05555556        0.00000000        0.00000000        0.00000000
        -27.99489489        0.00000000        0.00000000        0.00000000
        -27.93423423        0.00000000        0.00000000        0.00000000
        -27.87357357        0.00000000        0.00000000        0.00000000
        -27.81291291        0.00000000        0.00000000        0.00000000
        -27.75225225        0.00000000        0.00000000        0.00000000
        -27.69159159        0.00000000        0.00000000        0.00000000
        -27.63093093        0.00000000        0.00000000        0.00000000
        -27.57027027        0.00000000        0.00000000        0.00000000
        -27.50960961        0.00000000        0.00000000        0.00000000
        -27.44894895        0.00000000        0.00000000        0.00000000
        -27.38828829        0.00000000        0.00000000        0.00000000
        -27.32762763        0.00000000        0.00000000        0.00000000
        -27.26696697        0.00000000        0.00000000        0.00000000
        -27.20630631        0.00000000        0.00000000        0.00000000
        -27.14564565        0.00000000        0.00000000        0.00000000
        -27.08498498        0.00000000        0.00000000        0.00000000
        -27.02432432        0.00000000        0.00000000        0.00000000
        -26.96366366        0.00000000        0.00000000        0.00000000
        -26.90300300        0.00000000        0.00000000        0.00000000
        -26.84234234        0.00000000        0.00000000        0.00000000
        -26.78168168        0.00000000        0.00000000        0.00000000
        -26.72102102        0.00000000        0.00000000        0.00000000
        -26.66036036        0.00000000        0.00000000        0.00000000
        -26.59969970        0.00000000        0.00000000        0.00000000
        -26.53903904        0.00000000        0.00000000        0.00000000
        -26.47837838        0.00000000        0.00000000        0.00000000
        -26.41771772        0.00000000        0.00000000        0.00000000
        -26.35705706        0.00000000        0.00000000        0.00000000
        -26.29639640        0.00000000        0.00000000        0.00000000
        -26.23573574        0.00000000        0.00000000        0.00000000
        -26.17507508        0.00000000        0.00000000        0.00000000
        -26.11441441        0.00000000        0.00000000        0.00000000
        -26.05375375        0.00000000        0.00000000        0.00000000
        -25.99309309        0.00000000        0.00000000        0.00000000
        -25.93243243        0.00000000        0.00000000        0.00000000
        -25.87177177        0.00000000        0.00000000        0.00000000
        -25.81111111        0.00000000        0.00000000        0.00000000
        -25.75045045        0.00000000        0.00000000        0.00000000
        -25.68978979        0.00000000        0.00000000        0.00000000
        -25.62912913        0.00000000        0.00000000        0.00000000
        -25.56846847        0.00000000        0.00000000        0.00000000
        -25.50780781        0.00000000        0.00000000        0.00000000
        -25.44714715        0.00000000        0.00000000        0.00000000
        -25.38648649        0.00000000        0.00000000        0.00000000
        -25.32582583        0.00000000        0.00000000        0.00000000
        -25.26516517        0.00000000        0.00000000        0.00000000
        -25.20450450        0.00000000        0.00000000        0.00000000
        -25.14384384        0.00000000        0.00000000        0.00000000
        -25.08318318        0.00000000        0.00000000        0.00000000
        -25.02252252        0.00000000        0.00000000        0.00000000
        -24.96186186        0.00000000        0.00000000        0.00000000
        -24.90120120        0.00000000        0.00000000        0.00000000
        -24.84054054        0.00000000        0.00000000        0.00000000
        -24.77987988        0.00000000        0.00000000        0.00000000
        -24.71921922        0.00000000        0.00000000        0.00000000
        -24.65855856        0.00000000        0.00000000        0.00000000
        -24.59789790        0.00000000        0.00000000        0.00000000
        -24.53723724        0.00000000        0.00000000        0.00000000
        -24.47657658        0.00000000        0.00000000        0.00000000
        -24.41591592        0.00000000        0.00000000        0.00000000
        -24.35525526        0.00000000        0.00000000        0.00000000
        -24.29459459        0.00000000        0.00000000        0.00000000
        -24.23393393        0.00000000        0.00000000        0.00000000
        -24.17327327        0.00000000        0.00000000        0.00000000
        -24.11261261        0.00000000        0.00000000        0.00000000
        -24.05195195        0.00000000        0.00000000        0.00000000
        -23.99129129        0.00000000        0.00000000        0.00000000
        -23.93063063        0.00000000        0.00000000        0.00000000
        -23.86996997        0.00000000        0.00000000        0.00000000
        -23.80930931        0.00000000        0.00000000        0.00000000
        -23.74864865        0.00000000        0.00000000        0.00000000
        -23.68798799        0.00000000        0.00000000        0.00000000
        -23.62732733        0.00000000        0.00000000        0.00000000
        -23.56666667        0.00000000        0.00000000        0.00000000
        -23.50600601        0.00000000        0.00000000        0.00000000
        -23.44534535        0.00000000        0.00000000        0.00000000
        -23.38468468        0.00000000        0.00000000        0.00000000
        -23.32402402        0.00000000        0.00000000        0.00000000
        -23.26336336        0.00000000        0.00000000        0.00000000
        -23.20270270        0.00000000        0.00000000        0.00000000
        -23.14204204        0.00000000        0.00000000        0.00000000
        -23.08138138        0.00000000        0.00000000        0.00000000
        -23.02072072        0.00000000        0.00000000        0.00000000
        -22.96006006        0.00000000        0.00000000        0.00000000
        -22.89939940        0.00000000        0.00000000        0.00000000
        -22.83873874        0.00000000        0.00000000        0.00000000
        -22.77807808        0.00000000        0.00000000        0.00000000
        -22.71741742        0.00000000        0.00000000        0.00000000
        -22.65675676        0.00000000        0.00000000        0.00000000
        -22.59609610        0.00000000        0.00000000        0.00000000
        -22.53543544        0.00000000        0.00000000        0.00000000
        -22.47477477        0.00000000        0.00000000        0.00000000
        -22.41411411        0.00000000        0.00000000        0.00000000
        -22.35345345        0.00000000        0.00000000        0.00000000
        -22.29279279        0.00000000        0.00000000        0.00000000
        -22.23213213        0.00000000        0.00000000        0.00000000
        -22.17147147        0.00000000        0.00000000        0.00000000
        -22.11081081        0.00000000        0.00000000        0.00000000
        -22.05015015        0.00000000        0.00000000        0.00000000
        -21.98948949        0.00000000        0.00000000        0.00000000
        -21.92882883        0.00000000        0.00000000        0.00000000
        -21.86816817        0.00000000        0.00000000        0.00000000
        -21.80750751        0.00000000        0.00000000        0.00000000
        -21.74684685        0.00000000        0.00000000        0.00000000
        -21.68618619        0.00000000        0.00000000        0.00000000
        -21.62552553        0.00000000        0.00000000        0.00000000
        -21.56486486        0.00000000        0.00000000        0.00000000
        -21.50420420        0.00000000        0.00000000        0.00000000
        -21.44354354        0.00000000        0.00000000        0.00000000
        -21.38288288        0.00000000        0.00000000        0.00000000
        -21.32222222        0.00000000        0.00000000        0.00000000
        -21.26156156        0.00000000        0.00000000        0.00000000
        -21.20090090        0.00000000        0.00000000        0.00000000
        -21.14024024        0.00000000        0.00000000        0.00000000
        -21.07957958        0.00000000        0.00000000        0.00000000
        -21.01891892        0.00000000        0.00000000        0.00000000
        -20.95825826        0.00000000        0.00000000        0.00000000
        -20.89759760        0.00000000        0.00000000        0.00000000
        -20.83693694        0.00000000        0.00000000        0.00000000
        -20.77627628        0.00000000        0.00000000        0.00000000
        -20.71561562        0.00000004        0.00000004        0.00000008
        -20.65495495        0.00000095        0.00000095        0.00000190
        -20.59429429        0.00001347        0.00001344        0.00002691
        -20.53363363        0.00010702        0.00010658        0.00021361
        -20.47297297        0.00047236        0.00046948        0.00094184
        -20.41231231        0.00117558        0.00116765        0.00234324
        -20.35165165        0.00170802        0.00169904        0.00340706
        -20.29099099        0.00158991        0.00158502        0.00317493
        -20.23033033        0.00143478        0.00142796        0.00286274
        -20.16966967        0.00195923        0.00194865        0.00390788
        -20.10900901        0.00263224        0.00262625        0.00525849
        -20.04834835        0.00273360        0.00273109        0.00546469
        -19.98768769        0.00242756        0.00242325        0.00485081
        -19.92702703        0.00212412        0.00211934        0.00424346
        -19.86636637        0.00184254        0.00183924        0.00368177
        -19.80570571        0.00159320        0.00159144        0.00318464
        -19.74504505        0.00146238        0.00146131        0.00292369
        -19.68438438        0.00140966        0.00140780        0.00281746
        -19.62372372        0.00135693        0.00135401        0.00271094
        -19.56306306        0.00130889        0.00130555        0.00261444
        -19.50240240        0.00127472        0.00127204        0.00254676
        -19.44174174        0.00124210        0.00124026        0.00248236
        -19.38108108        0.00124633        0.00124462        0.00249095
        -19.32042042        0.00125142        0.00124970        0.00250112
        -19.25975976        0.00119901        0.00119724        0.00239625
        -19.19909910        0.00111716        0.00111519        0.00223235
        -19.13843844        0.00106278        0.00106015        0.00212293
        -19.07777778        0.00106582        0.00106220        0.00212802
        -19.01711712        0.00106325        0.00105921        0.00212246
        -18.95645646        0.00103683        0.00103311        0.00206994
        -18.89579580        0.00106865        0.00106556        0.00213421
        -18.83513514        0.00115102        0.00114844        0.00229947
        -18.77447447        0.00117100        0.00116867        0.00233967
        -18.71381381        0.00114491        0.00114225        0.00228716
        -18.65315315        0.00117329        0.00117000        0.00234329
        -18.59249249        0.00123197        0.00122901        0.00246098
        -18.53183183        0.00129080        0.00128827        0.00257907
        -18.47117117        0.00137817        0.00137495        0.00275312
        -18.41051051        0.00147331        0.00146958        0.00294289
        -18.34984985        0.00158268        0.00157858        0.00316125
        -18.28918919        0.00167145        0.00166578        0.00333723
        -18.22852853        0.00170686        0.00169942        0.00340628
        -18.16786787        0.00169284        0.00168610        0.00337894
        -18.10720721        0.00148285        0.00147820        0.00296105
        -18.04654655        0.00118536        0.00118299        0.00236836
        -17.98588589        0.00096536        0.00096427        0.00192963
        -17.92522523        0.00071765        0.00071628        0.00143394
        -17.86456456        0.00045622        0.00045536        0.00091158
        -17.80390390        0.00025471        0.00025482        0.00050952
        -17.74324324        0.00010682        0.00010704        0.00021386
        -17.68258258        0.00002655        0.00002660        0.00005315
        -17.62192192        0.00000342        0.00000343        0.00000685
        -17.56126126        0.00000022        0.00000022        0.00000044
        -17.50060060        0.00000001        0.00000001        0.00000001
        -17.43993994        0.00000000        0.00000000        0.00000000
        -17.37927928        0.00000000        0.00000000        0.00000000
        -17.31861862        0.00000016        0.00000016        0.00000033
        -17.25795796        0.00000481        0.00000481        0.00000962
        -17.19729730        0.00006936        0.00006929        0.00013865
        -17.13663664        0.00049756        0.00049605        0.00099360
        -17.07597598        0.00186010        0.00184973        0.00370983
        -17.01531532        0.00391318        0.00388314        0.00779631
        -16.95465465        0.00516412        0.00512797        0.01029209
        -16.89399399        0.00485427        0.00483965        0.00969392
        -16.83333333        0.00389200        0.00389191        0.00778391
        -16.77267267        0.00342866        0.00342478        0.00685344
        -16.71201201        0.00354270        0.00353325        0.00707596
        -16.65135135        0.00376064        0.00375065        0.00751129
        -16.59069069        0.00379128        0.00378438        0.00757565
        -16.53003003        0.00368474        0.00367758        0.00736231
        -16.46936937        0.00367852        0.00366782        0.00734634
        -16.40870871        0.00367147        0.00365905        0.00733052
        -16.34804805        0.00368345        0.00367204        0.00735549
        -16.28738739        0.00367704        0.00366890        0.00734593
        -16.22672673        0.00357047        0.00356453        0.00713500
        -16.16606607        0.00383654        0.00382902        0.00766556
        -16.10540541        0.00475791        0.00474727        0.00950518
        -16.04474474        0.00523125        0.00521846        0.01044971
        -15.98408408        0.00460582        0.00459085        0.00919667
        -15.92342342        0.00406116        0.00404344        0.00810460
        -15.86276276        0.00407556        0.00405802        0.00813358
        -15.80210210        0.00408994        0.00407257        0.00816251
        -15.74144144        0.00444489        0.00442454        0.00886943
        -15.68078078        0.00535956        0.00533866        0.01069823
        -15.62012012        0.00641809        0.00639643        0.01281451
        -15.55945946        0.00733712        0.00731155        0.01464867
        -15.49879880        0.00780070        0.00777730        0.01557800
        -15.43813814        0.00777052        0.00775259        0.01552311
        -15.37747748        0.00819483        0.00817305        0.01636788
        -15.31681682        0.00938160        0.00935346        0.01873506
        -15.25615616        0.01026263        0.01023409        0.02049672
        -15.19549550        0.01015400        0.01012872        0.02028272
        -15.13483483        0.00961718        0.00959213        0.01920932
        -15.07417417        0.00925274        0.00922758        0.01848032
        -15.01351351        0.00881122        0.00879464        0.01760586
        -14.95285285        0.00843033        0.00842286        0.01685319
        -14.89219219        0.00841623        0.00840691        0.01682313
        -14.83153153        0.00846900        0.00845505        0.01692406
        -14.77087087        0.00773804        0.00772437        0.01546240
        -14.71021021        0.00609913        0.00608610        0.01218523
        -14.64954955        0.00439588        0.00438587        0.00878176
        -14.58888889        0.00278950        0.00278667        0.00557617
        -14.52822823        0.00130483        0.00130548        0.00261031
        -14.46756757        0.00042734        0.00042741        0.00085475
        -14.40690691        0.00010927        0.00010901        0.00021828
        -14.34624625        0.00002243        0.00002233        0.00004476
        -14.28558559        0.00001837        0.00001843        0.00003680
        -14.22492492        0.00026459        0.00026561        0.00053020
        -14.16426426        0.00217679        0.00218263        0.00435942
        -14.10360360        0.00869474        0.00870519        0.01739993
        -14.04294294        0.01790869        0.01787396        0.03578265
        -13.98228228        0.02483243        0.02459065        0.04942309
        -13.92162162        0.03641902        0.03586817        0.07228719
        -13.86096096        0.05026654        0.04980503        0.10007157
        -13.80030030        0.05213792        0.05210134        0.10423927
        -13.73963964        0.04864319        0.04868455        0.09732774
        -13.67897898        0.04923948        0.04913054        0.09837002
        -13.61831832        0.05070768        0.05051797        0.10122566
        -13.55765766        0.04987123        0.04970764        0.09957887
        -13.49699700        0.04682995        0.04670099        0.09353094
        -13.43633634        0.04202710        0.04189682        0.08392392
        -13.37567568        0.03691365        0.03680279        0.07371644
        -13.31501502        0.03301993        0.03294431        0.06596424
        -13.25435435        0.03147636        0.03142877        0.06290513
        -13.19369369        0.03285144        0.03281400        0.06566543
        -13.13303303        0.03578950        0.03573664        0.07152614
        -13.07237237        0.03728862        0.03721619        0.07450481
        -13.01171171        0.03510607        0.03503026        0.07013633
        -12.95105105        0.03064212        0.03058085        0.06122297
        -12.89039039        0.02554628        0.02551121        0.05105750
        -12.82972973        0.02172096        0.02169268        0.04341364
        -12.76906907        0.02206776        0.02202351        0.04409128
        -12.70840841        0.02556553        0.02550447        0.05107001
        -12.64774775        0.02677894        0.02670967        0.05348861
        -12.58708709        0.02394368        0.02386046        0.04780414
        -12.52642643        0.02090898        0.02082112        0.04173010
        -12.46576577        0.01894045        0.01887951        0.03781996
        -12.40510511        0.01611537        0.01609432        0.03220969
        -12.34444444        0.01339853        0.01340067        0.02679920
        -12.28378378        0.01350136        0.01350883        0.02701018
        -12.22312312        0.01582755        0.01582064        0.03164819
        -12.16246246        0.02254133        0.02247135        0.04501268
        -12.10180180        0.03238241        0.03221201        0.06459441
        -12.04114114        0.03225518        0.03205158        0.06430676
        -11.98048048        0.02372986        0.02352057        0.04725043
        -11.91981982        0.02420433        0.02386767        0.04807200
        -11.85915916        0.03684686        0.03638523        0.07323209
        -11.79849850        0.04900830        0.04862730        0.09763561
        -11.73783784        0.05259957        0.05241432        0.10501389
        -11.67717718        0.05544808        0.05536695        0.11081503
        -11.61651652        0.06594957        0.06579871        0.13174827
        -11.55585586        0.08275132        0.08239326        0.16514459
        -11.49519520        0.10191836        0.10144908        0.20336744
        -11.43453453        0.11541188        0.11510037        0.23051226
        -11.37387387        0.11194449        0.11178619        0.22373068
        -11.31321321        0.08839913        0.08823826        0.17663739
        -11.25255255        0.06213799        0.06195208        0.12409007
        -11.19189189        0.05026204        0.05005247        0.10031451
        -11.13123123        0.04715819        0.04692002        0.09407821
        -11.07057057        0.04035327        0.04015045        0.08050372
        -11.00990991        0.03564123        0.03553422        0.07117546
        -10.94924925        0.04898869        0.04891155        0.09790025
        -10.88858859        0.07870106        0.07845399        0.15715505
        -10.82792793        0.10284222        0.10222324        0.20506547
        -10.76726727        0.10193163        0.10120602        0.20313765
        -10.70660661        0.07609880        0.07556531        0.15166411
        -10.64594595        0.06304749        0.06251218        0.12555966
        -10.58528529        0.08582206        0.08522220        0.17104426
        -10.52462462        0.12196247        0.12139553        0.24335800
        -10.46396396        0.14405244        0.14334017        0.28739261
        -10.40330330        0.14641849        0.14500851        0.29142700
        -10.34264264        0.14735979        0.14501730        0.29237709
        -10.28198198        0.15391154        0.15153777        0.30544931
        -10.22132132        0.15441334        0.15307717        0.30749051
        -10.16066066        0.14903651        0.14869548        0.29773199
        -10.10000000        0.14537458        0.14513019        0.29050476
        -10.03933934        0.15074999        0.14987958        0.30062958
         -9.97867868        0.18421212        0.18267243        0.36688455
         -9.91801802        0.24652605        0.24482592        0.49135197
         -9.85735736        0.28260070        0.28145124        0.56405194
         -9.79669670        0.26946238        0.26876279        0.53822517
         -9.73603604        0.24535727        0.24440892        0.48976619
         -9.67537538        0.23906408        0.23765734        0.47672141
         -9.61471471        0.25631323        0.25478751        0.51110073
         -9.55405405        0.27871377        0.27746551        0.55617927
         -9.49339339        0.27740767        0.27613824        0.55354591
         -9.43273273        0.26034786        0.25854691        0.51889478
         -9.37207207        0.26002515        0.25772412        0.51774927
         -9.31141141        0.29029100        0.28759506        0.57788607
         -9.25075075        0.33860278        0.33553292        0.67413570
         -9.19009009        0.39396402        0.39046771        0.78443173
         -9.12942943        0.44702255        0.44315209        0.89017464
         -9.06876877        0.47272565        0.46911104        0.94183669
         -9.00810811        0.47614977        0.47274409        0.94889386
         -8.94744745        0.49934862        0.49555461        0.99490323
         -8.88678679        0.53528303        0.53153487        1.06681791
         -8.82612613        0.55327065        0.54990415        1.10317480
         -8.76546547        0.56086433        0.55758730        1.11845163
         -8.70480480        0.55958788        0.55667870        1.11626658
         -8.64414414        0.54066599        0.53832781        1.07899380
         -8.58348348        0.49517308        0.49313683        0.98830992
         -8.52282282        0.43526988        0.43448611        0.86975599
         -8.46216216        0.42381806        0.42788843        0.85170648
         -8.40150150        0.53467346        0.54482279        1.07949624
         -8.34084084        0.70383533        0.70886085        1.41269618
         -8.28018018        0.72346558        0.71422345        1.43768902
         -8.21951952        0.63158825        0.61204026        1.24362851
         -8.15885886        0.60386232        0.57108373        1.17494605
         -8.09819820        0.60941178        0.56552844        1.17494022
         -8.03753754        0.64663591        0.59568502        1.24232093
         -7.97687688        0.85670483        0.78684715        1.64355197
         -7.91621622        1.39985770        1.30265140        2.70250911
         -7.85555556        2.39301949        2.29479472        4.68781421
         -7.79489489        3.99152302        3.97562139        7.96714441
         -7.73423423        6.85285382        6.98243125       13.83528507
         -7.67357357       11.47024620       11.71716695       23.18741314
         -7.61291291       17.67047946       17.84540428       35.51588374
         -7.55225225       24.55373812       24.04827952       48.60201764
         -7.49159159       29.83344449       27.77782713       57.61127162
         -7.43093093       33.71843327       30.54496958       64.26340285
         -7.37027027       37.13865328       35.12593623       72.26458951
         -7.30960961       35.24059259       35.75296294       70.99355553
         -7.24894895       25.43378219       27.21465876       52.64844095
         -7.18828829       16.94385328       19.00048619       35.94433946
         -7.12762763       17.37721867       19.04818226       36.42540093
         -7.06696697       24.23330628       23.75873242       47.99203870
         -7.00630631       34.56547243       32.47284408       67.03831651
         -6.94564565       42.91915409       42.14806922       85.06722331
         -6.88498498       42.72588587       43.62994349       86.35582936
         -6.82432432       39.72735451       40.12009903       79.84745354
         -6.76366366       39.63407808       38.23171199       77.86579008
         -6.70300300       44.74507193       42.74549145       87.49056338
         -6.64234234       55.08373892       54.65769632      109.74143524
         -6.58168168       61.08026221       62.49724080      123.57750301
         -6.52102102       59.42444039       60.59627145      120.02071185
         -6.46036036       61.09357906       60.64825746      121.74183652
         -6.39969970       69.52711863       67.85105957      137.37817821
         -6.33903904       76.23657074       74.60175335      150.83832409
         -6.27837838       75.18092102       75.43145857      150.61237959
         -6.21771772       69.71735410       71.32380094      141.04115505
         -6.15705706       65.87248711       67.02224694      132.89473405