#            ENERGY              s1              s2              total
        -30.30000000        0.00000000        0.00000000        0.00000000
        -30.23933934        0.00000123        0.00000120        0.00000244
        -30.17867868        0.00003837        0.00003741        0.00007578
        -30.11801802        0.00056043        0.00054852        0.00110894
        -30.05735736        0.00402523        0.00395832        0.00798355
        -29.99669670        0.01480583        0.01465018        0.02945601
        -29.93603604        0.03037674        0.03028280        0.06065954
        -29.87537538        0.04001011        0.04011479        0.08012490
        -29.81471471        0.03932127        0.03944456        0.07876582
        -29.75405405        0.03813683        0.03815390        0.07629073
        -29.69339339        0.04970101        0.04970195        0.09940295
        -29.63273273        0.06429082        0.06436604        0.12865686
        -29.57207207        0.06822245        0.06828289        0.13650534
        -29.51141141        0.06275337        0.06269834        0.12545171
        -29.45075075        0.05307308        0.05285223        0.10592531
        -29.39009009        0.05013126        0.04983736        0.09996862
        -29.32942943        0.05363741        0.05364320        0.10728060
        -29.26876877        0.05116437        0.05143124        0.10259561
        -29.20810811        0.03941832        0.03956267        0.07898099
        -29.14744745        0.02546655        0.02548002        0.05094658
        -29.08678679        0.01663534        0.01667282        0.03330816
        -29.02612613        0.01052477        0.01059932        0.02112409
        -28.96546547        0.00476173        0.00481272        0.00957445
        -28.90480480        0.00129083        0.00130739        0.00259822
        -28.84414414        0.00019755        0.00020027        0.00039782
        -28.78348348        0.00001684        0.00001706        0.00003390
        -28.72282282        0.00000079        0.00000080        0.00000159
        -28.66216216        0.00000002        0.00000002        0.00000003
        -28.60150150        0.00000000        0.00000000        0.00000000
        -28.54084084        0.00000000        0.00000000        0.00000000
        -28.48018018        0.00000000        0.00000000        0.00000000
        -28.41951952        0.00000000        0.00000000        0.00000000
        -28.35885886        0.00000000        0.00000000        0.00000000
        -28.29819820        0.00000000        0.00000000        0.00000000
        -28.23753754        0.00000000        0.00000000        0.00000000
        -28.17687688        0.00000000        0.00000000        0.00000000
        -28.11621622        0.00000000        0.00000000        0.00000000
        -28.05555556        0.00000000        0.00000000        0.00000000
        -27.99489489        0.00000000        0.00000000        0.00000000
        -27.93423423        0.00000000        0.00000000        0.00000000
        -27.87357357        0.00000000        0.00000000        0.00000000
        -27.81291291        0.00000000        0.00000000        0.00000000
        -27.75225225        0.00000000        0.00000000        0.00000000
        -27.69159159        0.00000000        0.00000000        0.00000000
        -27.63093093        0.00000000        0.00000000        0.00000000
        -27.57027027        0.00000000        0.00000000        0.00000000
        -27.50960961        0.00000000        0.00000000        0.00000000
        -27.44894895        0.00000000        0.00000000        0.00000000
        -27.38828829        0.00000000        0.00000000        0.00000000
        -27.32762763        0.00000000        0.00000000        0.00000000
        -27.26696697        0.00000000        0.00000000        0.00000000
        -27.20630631        0.00000000        0.00000000        0.00000000
        -27.14564565        0.00000000        0.00000000        0.00000000
        -27.08498498        0.00000000        0.00000000        0.00000000
        -27.02432432        0.00000000        0.00000000        0.00000000
        -26.96366366        0.00000000        0.00000000        0.00000000
        -26.90300300        0.00000000        0.00000000        0.00000000
        -26.84234234        0.00000000        0.00000000        0.00000000
        -26.78168168        0.00000000        0.00000000        0.00000000
        -26.72102102        0.00000000        0.00000000        0.00000000
        -26.66036036        0.00000000        0.00000000        0.00000000
        -26.59969970        0.00000000        0.00000000        0.00000000
        -26.53903904        0.00000000        0.00000000        0.00000000
        -26.47837838        0.00000000        0.00000000        0.00000000
        -26.41771772        0.00000000        0.00000000        0.00000000
        -26.35705706        0.00000000        0.00000000        0.00000000
        -26.29639640        0.00000000        0.00000000        0.00000000
        -26.23573574        0.00000000        0.00000000        0.00000000
        -26.17507508        0.00000000        0.00000000        0.00000000
        -26.11441441        0.00000000        0.00000000        0.00000000
        -26.05375375        0.00000000        0.00000000        0.00000000
        -25.99309309        0.00000000        0.00000000        0.00000000
        -25.93243243        0.00000000        0.00000000        0.00000000
        -25.87177177        0.00000000        0.00000000        0.00000000
        -25.81111111        0.00000000        0.00000000        0.00000000
        -25.75045045        0.00000000        0.00000000        0.00000000
        -25.68978979        0.00000000        0.00000000        0.00000000
        -25.62912913        0.00000000        0.00000000        0.00000000
        -25.56846847        0.00000000        0.00000000        0.00000000
        -25.50780781        0.00000000        0.00000000        0.00000000
        -25.44714715        0.00000000        0.00000000        0.00000000
        -25.38648649        0.00000000        0.00000000        0.00000000
        -25.32582583        0.00000000        0.00000000        0.00000000
        -25.26516517        0.00000000        0.00000000        0.00000000
        -25.20450450        0.00000000        0.00000000        0.00000000
        -25.14384384        0.00000000        0.00000000        0.00000000
        -25.08318318        0.00000000        0.00000000        0.00000000
        -25.02252252        0.00000000        0.00000000        0.00000000
        -24.96186186        0.00000000        0.00000000        0.00000000
        -24.90120120        0.00000000        0.00000000        0.00000000
        -24.84054054        0.00000000        0.00000000        0.00000000
        -24.77987988        0.00000000        0.00000000        0.00000000
        -24.71921922        0.00000000        0.00000000        0.00000000
        -24.65855856        0.00000000        0.00000000        0.00000000
        -24.59789790        0.00000000        0.00000000        0.00000000
        -24.53723724        0.00000000        0.00000000        0.00000000
        -24.47657658        0.00000000        0.00000000        0.00000000
        -24.41591592        0.00000000        0.00000000        0.00000000
        -24.35525526        0.00000000        0.00000000        0.00000000
        -24.29459459        0.00000000        0.00000000        0.00000000
        -24.23393393        0.00000000        0.00000000        0.00000000
        -24.17327327        0.00000000        0.00000000        0.00000000
        -24.11261261        0.00000000        0.00000000        0.00000000
        -24.05195195        0.00000000        0.00000000        0.00000000
        -23.99129129        0.00000000        0.00000000        0.00000000
        -23.93063063        0.00000000        0.00000000        0.00000000
        -23.86996997        0.00000000        0.00000000        0.00000000
        -23.80930931        0.00000000        0.00000000        0.00000000
        -23.74864865        0.00000000        0.00000000        0.00000000
        -23.68798799        0.00000000        0.00000000        0.00000000
        -23.62732733        0.00000000        0.00000000        0.00000000
        -23.56666667        0.00000000        0.00000000        0.00000000
        -23.50600601        0.00000000        0.00000000        0.00000000
        -23.44534535        0.00000000        0.00000000        0.00000000
        -23.38468468        0.00000000        0.00000000        0.00000000
        -23.32402402        0.00000000        0.00000000        0.00000000
        -23.26336336        0.00000000        0.00000000        0.00000000
        -23.20270270        0.00000000        0.00000000        0.00000000
        -23.14204204        0.00000000        0.00000000        0.00000000
        -23.08138138        0.00000000        0.00000000        0.00000000
        -23.02072072        0.00000000        0.00000000        0.00000000
        -22.96006006        0.00000000        0.00000000        0.00000000
        -22.89939940        0.00000000        0.00000000        0.00000000
        -22.83873874        0.00000000        0.00000000        0.00000000
        -22.77807808        0.00000000        0.00000000        0.00000000
        -22.71741742        0.00000000        0.00000000        0.00000000
        -22.65675676        0.00000000        0.00000000        0.00000000
        -22.59609610        0.00000000        0.00000000        0.00000000
        -22.53543544        0.00000000        0.00000000        0.00000000
        -22.47477477        0.00000000        0.00000000        0.00000000
        -22.41411411        0.00000000        0.00000000        0.00000000
        -22.35345345        0.00000000        0.00000000        0.00000000
        -22.29279279        0.00000000        0.00000000        0.00000000
        -22.23213213        0.00000000        0.00000000        0.00000000
        -22.17147147        0.00000000        0.00000000        0.00000000
        -22.11081081        0.00000000        0.00000000        0.00000000
        -22.05015015        0.00000000        0.00000000        0.00000000
        -21.98948949        0.00000000        0.00000000        0.00000000
        -21.92882883        0.00000000        0.00000000        0.00000000
        -21.86816817        0.00000000        0.00000000        0.00000000
        -21.80750751        0.00000000        0.00000000        0.00000000
        -21.74684685        0.00000000        0.00000000        0.00000000
        -21.68618619        0.00000000        0.00000000        0.00000000
        -21.62552553        0.00000000        0.00000000        0.00000000
        -21.56486486        0.00000000        0.00000000        0.00000000
        -21.50420420        0.00000000        0.00000000        0.00000000
        -21.44354354        0.00000000        0.00000000        0.00000000
        -21.38288288        0.00000000        0.00000000        0.00000000
        -21.32222222        0.00000000        0.00000000        0.00000000
        -21.26156156        0.00000000        0.00000000        0.00000000
        -21.20090090        0.00000000        0.00000000        0.00000000
        -21.14024024        0.00000000        0.00000000        0.00000000
        -21.07957958        0.00000000        0.00000000        0.00000000
        -21.01891892        0.00000000        0.00000000        0.00000000
        -20.95825826        0.00000000        0.00000000        0.00000000
        -20.89759760        0.00000000        0.00000000        0.00000000
        -20.83693694        0.00000000        0.00000000        0.00000000
        -20.77627628        0.00000001        0.00000001        0.00000001
        -20.71561562        0.00000029        0.00000029        0.00000057
        -20.65495495        0.00000644        0.00000644        0.00001288
        -20.59429429        0.00008488        0.00008480        0.00016969
        -20.53363363        0.00064264        0.00064102        0.00128366
        -20.47297297        0.00271012        0.00269938        0.00540949
        -20.41231231        0.00634525        0.00631711        0.01266236
        -20.35165165        0.00853058        0.00850188        0.01703246
        -20.29099099        0.00742531        0.00740282        0.01482813
        -20.23033033        0.00682007        0.00675815        0.01357822
        -20.16966967        0.00961206        0.00954127        0.01915333
        -20.10900901        0.01216082        0.01219393        0.02435475
        -20.04834835        0.01168867        0.01178017        0.02346884
        -19.98768769        0.00944317        0.00947826        0.01892143
        -19.92702703        0.00739089        0.00737406        0.01476495
        -19.86636637        0.00707475        0.00704562        0.01412037
        -19.80570571        0.00808804        0.00806872        0.01615675
        -19.74504505        0.00880438        0.00880547        0.01760985
        -19.68438438        0.00871609        0.00872795        0.01744404
        -19.62372372        0.00854400        0.00855124        0.01709524
        -19.56306306        0.00851064        0.00850851        0.01701915
        -19.50240240        0.00865943        0.00865600        0.01731543
        -19.44174174        0.00924482        0.00924740        0.01849222
        -19.38108108        0.01032299        0.01032647        0.02064946
        -19.32042042        0.01122505        0.01122719        0.02245224
        -19.25975976        0.01085658        0.01086189        0.02171847
        -19.19909910        0.00955944        0.00956409        0.01912352
        -19.13843844        0.00858280        0.00857879        0.01716159
        -19.07777778        0.00831120        0.00829989        0.01661109
        -19.01711712        0.00805750        0.00804755        0.01610505
        -18.95645646        0.00764302        0.00763703        0.01528006
        -18.89579580        0.00768605        0.00768067        0.01536673
        -18.83513514        0.00831242        0.00830658        0.01661901
        -18.77447447        0.00887002        0.00886504        0.01773506
        -18.71381381        0.00893915        0.00893433        0.01787348
        -18.65315315        0.00882249        0.00881551        0.01763800
        -18.59249249        0.00870527        0.00869859        0.01740386
        -18.53183183        0.00829244        0.00828622        0.01657867
        -18.47117117        0.00786818        0.00785734        0.01572552
        -18.41051051        0.00815129        0.00813623        0.01628752
        -18.34984985        0.00914494        0.00912718        0.01827212
        -18.28918919        0.00985002        0.00982641        0.01967642
        -18.22852853        0.00996152        0.00993482        0.01989634
        -18.16786787        0.00979000        0.00977788        0.01956789
        -18.10720721        0.00849963        0.00850589        0.01700552
        -18.04654655        0.00672440        0.00673886        0.01346325
        -17.98588589        0.00558524        0.00559796        0.01118320
        -17.92522523        0.00459314        0.00460286        0.00919600
        -17.86456456        0.00345462        0.00347017        0.00692479
        -17.80390390        0.00222287        0.00223792        0.00446079
        -17.74324324        0.00099347        0.00099953        0.00199299
        -17.68258258        0.00025157        0.00025258        0.00050415
        -17.62192192        0.00003258        0.00003265        0.00006523
        -17.56126126        0.00000207        0.00000207        0.00000414
        -17.50060060        0.00000006        0.00000006        0.00000013
        -17.43993994        0.00000000        0.00000000        0.00000000
        -17.37927928        0.00000000        0.00000000        0.00000000
        -17.31861862        0.00000143        0.00000143        0.00000287
        -17.25795796        0.00004057        0.00004059        0.00008116
        -17.19729730        0.00055478        0.00055473        0.00110951
        -17.13663664        0.00372546        0.00372124        0.00744670
        -17.07597598        0.01263290        0.01260218        0.02523508
        -17.01531532        0.02284167        0.02276277        0.04560444
        -16.95465465        0.02444042        0.02436931        0.04880973
        -16.89399399        0.01890226        0.01889780        0.03780005
        -16.83333333        0.01502224        0.01503832        0.03006056
        -16.77267267        0.01604181        0.01603293        0.03207474
        -16.71201201        0.01963141        0.01959834        0.03922975
        -16.65135135        0.02288314        0.02284582        0.04572895
        -16.59069069        0.02368701        0.02366653        0.04735355
        -16.53003003        0.02293009        0.02291390        0.04584399
        -16.46936937        0.02358131        0.02355040        0.04713172
        -16.40870871        0.02486293        0.02481927        0.04968220
        -16.34804805        0.02555971        0.02551722        0.05107693
        -16.28738739        0.02506903        0.02504379        0.05011282
        -16.22672673        0.02364302        0.02362663        0.04726965
        -16.16606607        0.02327796        0.02324614        0.04652410
        -16.10540541        0.02590283        0.02585308        0.05175592
        -16.04474474        0.02870928        0.02865812        0.05736740
        -15.98408408        0.02793769        0.02787887        0.05581657
        -15.92342342        0.02710776        0.02702225        0.05413000
        -15.86276276        0.02858831        0.02849779        0.05708610
        -15.80210210        0.02972760        0.02964754        0.05937514
        -15.74144144        0.03213958        0.03205366        0.06419324
        -15.68078078        0.03637888        0.03629056        0.07266944
        -15.62012012        0.04057668        0.04048376        0.08106044
        -15.55945946        0.04634314        0.04624132        0.09258445
        -15.49879880        0.05420436        0.05413676        0.10834112
        -15.43813814        0.06179797        0.06177601        0.12357398
        -15.37747748        0.07151392        0.07145812        0.14297204
        -15.31681682        0.08399602        0.08386630        0.16786232
        -15.25615616        0.09427366        0.09410269        0.18837636
        -15.19549550        0.09930254        0.09912974        0.19843228
        -15.13483483        0.10098324        0.10081945        0.20180269
        -15.07417417        0.10430820        0.10418448        0.20849268
        -15.01351351        0.10765418        0.10763057        0.21528475
        -14.95285285        0.10840934        0.10842825        0.21683759
        -14.89219219        0.10709581        0.10704060        0.21413641
        -14.83153153        0.10246137        0.10234707        0.20480844
        -14.77087087        0.09062319        0.09053447        0.18115766
        -14.71021021        0.07353234        0.07349445        0.14702679
        -14.64954955        0.05819222        0.05823478        0.11642700
        -14.58888889        0.04005927        0.04019199        0.08025127
        -14.52822823        0.01909423        0.01921245        0.03830668
        -14.46756757        0.00601211        0.00606080        0.01207291
        -14.40690691        0.00146616        0.00147845        0.00294461
        -14.34624625        0.00029969        0.00030214        0.00060183
        -14.28558559        0.00005587        0.00005630        0.00011217
        -14.22492492        0.00023853        0.00023945        0.00047798
        -14.16426426        0.00193983        0.00194495        0.00388479
        -14.10360360        0.00781665        0.00782600        0.01564265
        -14.04294294        0.01687603        0.01685073        0.03372677
        -13.98228228        0.02757425        0.02739427        0.05496852
        -13.92162162        0.04951637        0.04909111        0.09860748
        -13.86096096        0.07739525        0.07696352        0.15435877
        -13.80030030        0.09508962        0.09490418        0.18999380
        -13.73963964        0.11318685        0.11304483        0.22623167
        -13.67897898        0.13446241        0.13413325        0.26859565
        -13.61831832        0.14376583        0.14324935        0.28701518
        -13.55765766        0.14518850        0.14467657        0.28986507
        -13.49699700        0.14933996        0.14891527        0.29825522
        -13.43633634        0.14970534        0.14935661        0.29906195
        -13.37567568        0.13766407        0.13746955        0.27513362
        -13.31501502        0.11946760        0.11945275        0.23892034
        -13.25435435        0.10881729        0.10886572        0.21768302
        -13.19369369        0.10824948        0.10827135        0.21652083
        -13.13303303        0.10954935        0.10952668        0.21907603
        -13.07237237        0.10885391        0.10875987        0.21761378
        -13.01171171        0.10758922        0.10743039        0.21501961
        -12.95105105        0.10427433        0.10411827        0.20839261
        -12.89039039        0.09696379        0.09685685        0.19382064
        -12.82972973        0.09468362        0.09457489        0.18925851
        -12.76906907        0.10518026        0.10500402        0.21018428
        -12.70840841        0.11863963        0.11840644        0.23704607
        -12.64774775        0.11851735        0.11825892        0.23677627
        -12.58708709        0.10487196        0.10456780        0.20943975
        -12.52642643        0.09499235        0.09473533        0.18972768
        -12.46576577        0.09336023        0.09325253        0.18661276
        -12.40510511        0.08678109        0.08679919        0.17358027
        -12.34444444        0.07283550        0.07292581        0.14576130
        -12.28378378        0.06228744        0.06238362        0.12467105
        -12.22312312        0.05278532        0.05281676        0.10560208
        -12.16246246        0.04938618        0.04928538        0.09867156
        -12.10180180        0.05883313        0.05854935        0.11738249
        -12.04114114        0.06095143        0.06056146        0.12151290
        -11.98048048        0.05377705        0.05333101        0.10710806
        -11.91981982        0.06286541        0.06216625        0.12503166
        -11.85915916        0.09210982        0.09111031        0.18322013
        -11.79849850        0.11589171        0.11501517        0.23090688
        -11.73783784        0.12098032        0.12053940        0.24151971
        -11.67717718        0.12681482        0.12659366        0.25340849
        -11.61651652        0.14450163        0.14418036        0.28868199
        -11.55585586        0.16740156        0.16686582        0.33426738
        -11.49519520        0.19918717        0.19861351        0.39780069
        -11.43453453        0.23301836        0.23265237        0.46567073
        -11.37387387        0.23200553        0.23172248        0.46372801
        -11.31321321        0.18175807        0.18139382        0.36315189
        -11.25255255        0.12422148        0.12380082        0.24802230
        -11.19189189        0.09958156        0.09904957        0.19863114
        -11.13123123        0.09773301        0.09706412        0.19479714
        -11.07057057        0.08796635        0.08739723        0.17536357
        -11.00990991        0.07448096        0.07419749        0.14867845
        -10.94924925        0.08567259        0.08548085        0.17115344
        -10.88858859        0.12723401        0.12696704        0.25420105
        -10.82792793        0.17847781        0.17803283        0.35651064
        -10.76726727        0.19458418        0.19397329        0.38855747
        -10.70660661        0.15390507        0.15304496        0.30695002
        -10.64594595        0.14101576        0.13958283        0.28059859
        -10.58528529        0.20238591        0.20066289        0.40304880
        -10.52462462        0.26440361        0.26287900        0.52728261
        -10.46396396        0.27919547        0.27733800        0.55653346
        -10.40330330        0.27148549        0.26842504        0.53991054
        -10.34264264        0.26600876        0.26218102        0.52818978
        -10.28198198        0.25982913        0.25655016        0.51637929
        -10.22132132        0.25168001        0.24956825        0.50124827
        -10.16066066        0.24532713        0.24476294        0.49009007
        -10.10000000        0.24215635        0.24250343        0.48465978
        -10.03933934        0.27004496        0.26954370        0.53958866
         -9.97867868        0.36809223        0.36578079        0.73387302
         -9.91801802        0.51228684        0.50902943        1.02131627
         -9.85735736        0.58203957        0.58006958        1.16210915
         -9.79669670        0.53803117        0.53737868        1.07540985
         -9.73603604        0.47504334        0.47372108        0.94876442
         -9.67537538        0.45113311        0.44859428        0.89972739
         -9.61471471        0.46036795        0.45743461        0.91780256
         -9.55405405        0.46950052        0.46685638        0.93635690
         -9.49339339        0.45369411        0.45099031        0.90468442
         -9.43273273        0.42160968        0.41861076        0.84022044
         -9.37207207        0.40918805        0.40654838        0.81573644
         -9.31141141        0.44516251        0.44284431        0.88800682
         -9.25075075        0.49477548        0.49188793        0.98666341
         -9.19009009        0.51169600        0.50827256        1.01996856
         -9.12942943        0.51266733        0.50961649        1.02228382
         -9.06876877        0.52377780        0.52111087        1.04488867
         -9.00810811        0.53338438        0.52998704        1.06337143
         -8.94744745        0.53890179        0.53471728        1.07361906
         -8.88678679        0.53698599        0.53317408        1.07016007
         -8.82612613        0.51774269        0.51458196        1.03232465
         -8.76546547        0.49147623        0.48863027        0.98010650
         -8.70480480        0.48123203        0.47874684        0.95997887
         -8.64414414        0.48395764        0.48209093        0.96604857
         -8.58348348        0.47789375        0.47709920        0.95499295
         -8.52282282        0.51939521        0.52386205        1.04325725
         -8.46216216        0.84538588        0.87093740        1.71632328
         -8.40150150        1.74974404        1.80149692        3.55124097
         -8.34084084        2.69921067        2.72175840        5.42096908
         -8.28018018        2.51711606        2.46790743        4.98502350
         -8.21951952        1.63941084        1.54662342        3.18603426
         -8.15885886        1.25487106        1.11627747        2.37114853
         -8.09819820        1.22802308        1.05209995        2.28012303
         -8.03753754        1.18033750        0.99802010        2.17835760
         -7.97687688        1.30876357        1.10980934        2.41857291
         -7.91621622        1.63972076        1.43086937        3.07059013
         -7.85555556        2.07122535        1.92236940        3.99359476
         -7.79489489        2.44226969        2.49469831        4.93696800
         -7.73423423        2.73971045        3.00197990        5.74169035
         -7.67357357        3.11131046        3.42629731        6.53760777
         -7.61291291        3.58283545        3.80069757        7.38353302
         -7.55225225        4.29939488        4.32529793        8.62469280
         -7.49159159        5.26510001        5.02694428       10.29204428
         -7.43093093        6.19884579        5.72080024       11.91964603
         -7.37027027        6.53900567        6.12502438       12.66403005
         -7.30960961        5.61218018        5.66522833       11.27740851
         -7.24894895        3.57639611        3.96955596        7.54595207
         -7.18828829        1.91954499        2.28823640        4.20778138
         -7.12762763        1.54069193        1.76568130        3.30637323
         -7.06696697        2.13554580        2.12806102        4.26360682
         -7.00630631        3.24933313        3.07180801        6.32114114
         -6.94564565        3.88687362        3.76626150        7.65313512
         -6.88498498        3.37053032        3.38043428        6.75096460
         -6.82432432        2.80495105        2.85083610        5.65578714
         -6.76366366        2.66457102        2.64175065        5.30632167
         -6.70300300        2.42321171        2.35916046        4.78237216
         -6.64234234        2.13885121        2.13791939        4.27677060
         -6.58168168        1.78677291        1.88995819        3.67673110
         -6.52102102        1.28712803        1.41548107        2.70260909
         -6.46036036        0.97021023        1.03649296        2.00670320
         -6.39969970        0.91221786        0.90379897        1.81601683
         -6.33903904        0.96073903        0.91089388        1.87163291
         -6.27837838        0.92064534        0.92436850        1.84501384
         -6.21771772        0.78703054        0.84955801        1.63658854
         -6.15705706        0.72682071        0.77894576        1.50576646