#            ENERGY              s1              s2              total
        -30.30000000        0.00000000        0.00000000        0.00000000
        -30.23933934        0.00000097        0.00000094        0.00000191
        -30.17867868        0.00003178        0.00003078        0.00006256
        -30.11801802        0.00047533        0.00046196        0.00093728
        -30.05735736        0.00352783        0.00344455        0.00697237
        -29.99669670        0.01353610        0.01331194        0.02684804
        -29.93603604        0.02929293        0.02908558        0.05837851
        -29.87537538        0.04154969        0.04158341        0.08313310
        -29.81471471        0.04500639        0.04512244        0.09012883
        -29.75405405        0.04308367        0.04311123        0.08619490
        -29.69339339        0.04433888        0.04432530        0.08866418
        -29.63273273        0.04632589        0.04637854        0.09270443
        -29.57207207        0.04338348        0.04344804        0.08683151
        -29.51141141        0.03771372        0.03768846        0.07540217
        -29.45075075        0.02951017        0.02934036        0.05885053
        -29.39009009        0.02463109        0.02437720        0.04900829
        -29.32942943        0.02548515        0.02544941        0.05093456
        -29.26876877        0.02508832        0.02527136        0.05035967
        -29.20810811        0.01989449        0.02001111        0.03990560
        -29.14744745        0.01159042        0.01161108        0.02320150
        -29.08678679        0.00550025        0.00550670        0.01100695
        -29.02612613        0.00268002        0.00269318        0.00537320
        -28.96546547        0.00112707        0.00113740        0.00226448
        -28.90480480        0.00030183        0.00030563        0.00060746
        -28.84414414        0.00004519        0.00004588        0.00009106
        -28.78348348        0.00000365        0.00000371        0.00000736
        -28.72282282        0.00000016        0.00000016        0.00000032
        -28.66216216        0.00000000        0.00000000        0.00000000
        -28.60150150        0.00000000        0.00000000        0.00000000
        -28.54084084        0.00000000        0.00000000        0.00000000
        -28.48018018        0.00000000        0.00000000        0.00000000
        -28.41951952        0.00000000        0.00000000        0.00000000
        -28.35885886        0.00000000        0.00000000        0.00000000
        -28.29819820        0.00000000        0.00000000        0.00000000
        -28.23753754        0.00000000        0.00000000        0.00000000
        -28.17687688        0.00000000        0.00000000        0.00000000
        -28.11621622        0.00000000        0.00000000        0.00000000
        -28.05555556        0.00000000        0.00000000        0.00000000
        -27.99489489        0.00000000        0.00000000        0.00000000
        -27.93423423        0.00000000        0.00000000        0.00000000
        -27.87357357        0.00000000        0.00000000        0.00000000
        -27.81291291        0.00000000        0.00000000        0.00000000
        -27.75225225        0.00000000        0.00000000        0.00000000
        -27.69159159        0.00000000        0.00000000        0.00000000
        -27.63093093        0.00000000        0.00000000        0.00000000
        -27.57027027        0.00000000        0.00000000        0.00000000
        -27.50960961        0.00000000        0.00000000        0.00000000
        -27.44894895        0.00000000        0.00000000        0.00000000
        -27.38828829        0.00000000        0.00000000        0.00000000
        -27.32762763        0.00000000        0.00000000        0.00000000
        -27.26696697        0.00000000        0.00000000        0.00000000
        -27.20630631        0.00000000        0.00000000        0.00000000
        -27.14564565        0.00000000        0.00000000        0.00000000
        -27.08498498        0.00000000        0.00000000        0.00000000
        -27.02432432        0.00000000        0.00000000        0.00000000
        -26.96366366        0.00000000        0.00000000        0.00000000
        -26.90300300        0.00000000        0.00000000        0.00000000
        -26.84234234        0.00000000        0.00000000        0.00000000
        -26.78168168        0.00000000        0.00000000        0.00000000
        -26.72102102        0.00000000        0.00000000        0.00000000
        -26.66036036        0.00000000        0.00000000        0.00000000
        -26.59969970        0.00000000        0.00000000        0.00000000
        -26.53903904        0.00000000        0.00000000        0.00000000
        -26.47837838        0.00000000        0.00000000        0.00000000
        -26.41771772        0.00000000        0.00000000        0.00000000
        -26.35705706        0.00000000        0.00000000        0.00000000
        -26.29639640        0.00000000        0.00000000        0.00000000
        -26.23573574        0.00000000        0.00000000        0.00000000
        -26.17507508        0.00000000        0.00000000        0.00000000
        -26.11441441        0.00000000        0.00000000        0.00000000
        -26.05375375        0.00000000        0.00000000        0.00000000
        -25.99309309        0.00000000        0.00000000        0.00000000
        -25.93243243        0.00000000        0.00000000        0.00000000
        -25.87177177        0.00000000        0.00000000        0.00000000
        -25.81111111        0.00000000        0.00000000        0.00000000
        -25.75045045        0.00000000        0.00000000        0.00000000
        -25.68978979        0.00000000        0.00000000        0.00000000
        -25.62912913        0.00000000        0.00000000        0.00000000
        -25.56846847        0.00000000        0.00000000        0.00000000
        -25.50780781        0.00000000        0.00000000        0.00000000
        -25.44714715        0.00000000        0.00000000        0.00000000
        -25.38648649        0.00000000        0.00000000        0.00000000
        -25.32582583        0.00000000        0.00000000        0.00000000
        -25.26516517        0.00000000        0.00000000        0.00000000
        -25.20450450        0.00000000        0.00000000        0.00000000
        -25.14384384        0.00000000        0.00000000        0.00000000
        -25.08318318        0.00000000        0.00000000        0.00000000
        -25.02252252        0.00000000        0.00000000        0.00000000
        -24.96186186        0.00000000        0.00000000        0.00000000
        -24.90120120        0.00000000        0.00000000        0.00000000
        -24.84054054        0.00000000        0.00000000        0.00000000
        -24.77987988        0.00000000        0.00000000        0.00000000
        -24.71921922        0.00000000        0.00000000        0.00000000
        -24.65855856        0.00000000        0.00000000        0.00000000
        -24.59789790        0.00000000        0.00000000        0.00000000
        -24.53723724        0.00000000        0.00000000        0.00000000
        -24.47657658        0.00000000        0.00000000        0.00000000
        -24.41591592        0.00000000        0.00000000        0.00000000
        -24.35525526        0.00000000        0.00000000        0.00000000
        -24.29459459        0.00000000        0.00000000        0.00000000
        -24.23393393        0.00000000        0.00000000        0.00000000
        -24.17327327        0.00000000        0.00000000        0.00000000
        -24.11261261        0.00000000        0.00000000        0.00000000
        -24.05195195        0.00000000        0.00000000        0.00000000
        -23.99129129        0.00000000        0.00000000        0.00000000
        -23.93063063        0.00000000        0.00000000        0.00000000
        -23.86996997        0.00000000        0.00000000        0.00000000
        -23.80930931        0.00000000        0.00000000        0.00000000
        -23.74864865        0.00000000        0.00000000        0.00000000
        -23.68798799        0.00000000        0.00000000        0.00000000
        -23.62732733        0.00000000        0.00000000        0.00000000
        -23.56666667        0.00000000        0.00000000        0.00000000
        -23.50600601        0.00000000        0.00000000        0.00000000
        -23.44534535        0.00000000        0.00000000        0.00000000
        -23.38468468        0.00000000        0.00000000        0.00000000
        -23.32402402        0.00000000        0.00000000        0.00000000
        -23.26336336        0.00000000        0.00000000        0.00000000
        -23.20270270        0.00000000        0.00000000        0.00000000
        -23.14204204        0.00000000        0.00000000        0.00000000
        -23.08138138        0.00000000        0.00000000        0.00000000
        -23.02072072        0.00000000        0.00000000        0.00000000
        -22.96006006        0.00000000        0.00000000        0.00000000
        -22.89939940        0.00000000        0.00000000        0.00000000
        -22.83873874        0.00000000        0.00000000        0.00000000
        -22.77807808        0.00000000        0.00000000        0.00000000
        -22.71741742        0.00000000        0.00000000        0.00000000
        -22.65675676        0.00000000        0.00000000        0.00000000
        -22.59609610        0.00000000        0.00000000        0.00000000
        -22.53543544        0.00000000        0.00000000        0.00000000
        -22.47477477        0.00000000        0.00000000        0.00000000
        -22.41411411        0.00000000        0.00000000        0.00000000
        -22.35345345        0.00000000        0.00000000        0.00000000
        -22.29279279        0.00000000        0.00000000        0.00000000
        -22.23213213        0.00000000        0.00000000        0.00000000
        -22.17147147        0.00000000        0.00000000        0.00000000
        -22.11081081        0.00000000        0.00000000        0.00000000
        -22.05015015        0.00000000        0.00000000        0.00000000
        -21.98948949        0.00000000        0.00000000        0.00000000
        -21.92882883        0.00000000        0.00000000        0.00000000
        -21.86816817        0.00000000        0.00000000        0.00000000
        -21.80750751        0.00000000        0.00000000        0.00000000
        -21.74684685        0.00000000        0.00000000        0.00000000
        -21.68618619        0.00000000        0.00000000        0.00000000
        -21.62552553        0.00000000        0.00000000        0.00000000
        -21.56486486        0.00000000        0.00000000        0.00000000
        -21.50420420        0.00000000        0.00000000        0.00000000
        -21.44354354        0.00000000        0.00000000        0.00000000
        -21.38288288        0.00000000        0.00000000        0.00000000
        -21.32222222        0.00000000        0.00000000        0.00000000
        -21.26156156        0.00000000        0.00000000        0.00000000
        -21.20090090        0.00000000        0.00000000        0.00000000
        -21.14024024        0.00000000        0.00000000        0.00000000
        -21.07957958        0.00000000        0.00000000        0.00000000
        -21.01891892        0.00000000        0.00000000        0.00000000
        -20.95825826        0.00000000        0.00000000        0.00000000
        -20.89759760        0.00000000        0.00000000        0.00000000
        -20.83693694        0.00000000        0.00000000        0.00000000
        -20.77627628        0.00000001        0.00000001        0.00000002
        -20.71561562        0.00000037        0.00000037        0.00000075
        -20.65495495        0.00000706        0.00000706        0.00001412
        -20.59429429        0.00007713        0.00007704        0.00015417
        -20.53363363        0.00051103        0.00050925        0.00102028
        -20.47297297        0.00207037        0.00205897        0.00412934
        -20.41231231        0.00507528        0.00504614        0.01012142
        -20.35165165        0.00759563        0.00756805        0.01516368
        -20.29099099        0.00784733        0.00783540        0.01568273
        -20.23033033        0.00908164        0.00904722        0.01812886
        -20.16966967        0.01458921        0.01452515        0.02911436
        -20.10900901        0.02054617        0.02049502        0.04104119
        -20.04834835        0.02204612        0.02200723        0.04405334
        -19.98768769        0.01986973        0.01982684        0.03969657
        -19.92702703        0.01715054        0.01710682        0.03425735
        -19.86636637        0.01451577        0.01447817        0.02899394
        -19.80570571        0.01213915        0.01211416        0.02425331
        -19.74504505        0.01073179        0.01071708        0.02144886
        -19.68438438        0.01041751        0.01040079        0.02081830
        -19.62372372        0.01061562        0.01059229        0.02120791
        -19.56306306        0.01067848        0.01065300        0.02133148
        -19.50240240        0.01053970        0.01051833        0.02105803
        -19.44174174        0.01045109        0.01043515        0.02088624
        -19.38108108        0.01061918        0.01060493        0.02122410
        -19.32042042        0.01076618        0.01075106        0.02151724
        -19.25975976        0.01043039        0.01041411        0.02084450
        -19.19909910        0.00971694        0.00969891        0.01941584
        -19.13843844        0.00920352        0.00918073        0.01838425
        -19.07777778        0.00922741        0.00919877        0.01842618
        -19.01711712        0.00921097        0.00917946        0.01839043
        -18.95645646        0.00898098        0.00895075        0.01793172
        -18.89579580        0.00918388        0.00915774        0.01834162
        -18.83513514        0.00980147        0.00977644        0.01957791
        -18.77447447        0.01000720        0.00997979        0.01998699
        -18.71381381        0.00970771        0.00967850        0.01938621
        -18.65315315        0.00952943        0.00950058        0.01903001
        -18.59249249        0.00958255        0.00955631        0.01913886
        -18.53183183        0.00982340        0.00979402        0.01961742
        -18.47117117        0.01068992        0.01065189        0.02134181
        -18.41051051        0.01201284        0.01197401        0.02398685
        -18.34984985        0.01305275        0.01301454        0.02606729
        -18.28918919        0.01333437        0.01328378        0.02661815
        -18.22852853        0.01320088        0.01313625        0.02633713
        -18.16786787        0.01286852        0.01280902        0.02567754
        -18.10720721        0.01111165        0.01106630        0.02217795
        -18.04654655        0.00863430        0.00860660        0.01724089
        -17.98588589        0.00678335        0.00676938        0.01355273
        -17.92522523        0.00511309        0.00509948        0.01021256
        -17.86456456        0.00355687        0.00354653        0.00710341
        -17.80390390        0.00223965        0.00223697        0.00447661
        -17.74324324        0.00101771        0.00101784        0.00203555
        -17.68258258        0.00026276        0.00026285        0.00052561
        -17.62192192        0.00003447        0.00003447        0.00006894
        -17.56126126        0.00000221        0.00000221        0.00000441
        -17.50060060        0.00000007        0.00000007        0.00000014
        -17.43993994        0.00000000        0.00000000        0.00000000
        -17.37927928        0.00000000        0.00000000        0.00000000
        -17.31861862        0.00000078        0.00000078        0.00000156
        -17.25795796        0.00002319        0.00002320        0.00004638
        -17.19729730        0.00033576        0.00033543        0.00067120
        -17.13663664        0.00242616        0.00241981        0.00484597
        -17.07597598        0.00915538        0.00911356        0.01826894
        -17.01531532        0.01933001        0.01921726        0.03854727
        -16.95465465        0.02512457        0.02500493        0.05012950
        -16.89399399        0.02326115        0.02322810        0.04648925
        -16.83333333        0.02050007        0.02050511        0.04100518
        -16.77267267        0.02197055        0.02194991        0.04392046
        -16.71201201        0.02433775        0.02429302        0.04863077
        -16.65135135        0.02483186        0.02477985        0.04961171
        -16.59069069        0.02408053        0.02403935        0.04811988
        -16.53003003        0.02322169        0.02318280        0.04640449
        -16.46936937        0.02324720        0.02319701        0.04644421
        -16.40870871        0.02300587        0.02294613        0.04595200
        -16.34804805        0.02287157        0.02280916        0.04568073
        -16.28738739        0.02301654        0.02296558        0.04598212
        -16.22672673        0.02287251        0.02283425        0.04570676
        -16.16606607        0.02429854        0.02425597        0.04855451
        -16.10540541        0.02872640        0.02867033        0.05739673
        -16.04474474        0.03120091        0.03113312        0.06233403
        -15.98408408        0.02844631        0.02835794        0.05680425
        -15.92342342        0.02625855        0.02614417        0.05240272
        -15.86276276        0.02657467        0.02646320        0.05303787
        -15.80210210        0.02621900        0.02612162        0.05234062
        -15.74144144        0.02761006        0.02750691        0.05511696
        -15.68078078        0.03191139        0.03180481        0.06371620
        -15.62012012        0.03679473        0.03667464        0.07346937
        -15.55945946        0.04159053        0.04144019        0.08303072
        -15.49879880        0.04474101        0.04460633        0.08934734
        -15.43813814        0.04601673        0.04591639        0.09193312
        -15.37747748        0.05151500        0.05137607        0.10289107
        -15.31681682        0.06109277        0.06089308        0.12198586
        -15.25615616        0.06787259        0.06765666        0.13552925
        -15.19549550        0.06850480        0.06831200        0.13681679
        -15.13483483        0.06526489        0.06508356        0.13034845
        -15.07417417        0.06515469        0.06498819        0.13014288
        -15.01351351        0.06824872        0.06816528        0.13641400
        -14.95285285        0.07176763        0.07174301        0.14351064
        -14.89219219        0.07585924        0.07578122        0.15164046
        -14.83153153        0.07666359        0.07652859        0.15319219
        -14.77087087        0.06834340        0.06821831        0.13656171
        -14.71021021        0.05429980        0.05418440        0.10848420
        -14.64954955        0.04116375        0.04107813        0.08224188
        -14.58888889        0.02677662        0.02676759        0.05354421
        -14.52822823        0.01211656        0.01213873        0.02425529
        -14.46756757        0.00361216        0.00361952        0.00723168
        -14.40690691        0.00081010        0.00080930        0.00161940
        -14.34624625        0.00014992        0.00014927        0.00029919
        -14.28558559        0.00004633        0.00004635        0.00009268
        -14.22492492        0.00046447        0.00046625        0.00093073
        -14.16426426        0.00381637        0.00382659        0.00764296
        -14.10360360        0.01531807        0.01533535        0.03065342
        -14.04294294        0.03238226        0.03230984        0.06469209
        -13.98228228        0.04928952        0.04881794        0.09810747
        -13.92162162        0.08115535        0.08014381        0.16129916
        -13.86096096        0.11859096        0.11789247        0.23648342
        -13.80030030        0.13346781        0.13359809        0.26706589
        -13.73963964        0.14574455        0.14586313        0.29160767
        -13.67897898        0.16587621        0.16562045        0.33149666
        -13.61831832        0.17414265        0.17365635        0.34779900
        -13.55765766        0.17155753        0.17096354        0.34252107
        -13.49699700        0.16902440        0.16834148        0.33736589
        -13.43633634        0.16515371        0.16444537        0.32959908
        -13.37567568        0.15527748        0.15476965        0.31004712
        -13.31501502        0.13779881        0.13758799        0.27538680
        -13.25435435        0.12037924        0.12033724        0.24071648
        -13.19369369        0.11440777        0.11435073        0.22875850
        -13.13303303        0.11983357        0.11965481        0.23948837
        -13.07237237        0.12807413        0.12777864        0.25585276
        -13.01171171        0.13110631        0.13080104        0.26190734
        -12.95105105        0.12415172        0.12397203        0.24812375
        -12.89039039        0.10574750        0.10572302        0.21147052
        -12.82972973        0.08837255        0.08835610        0.17672865
        -12.76906907        0.08803641        0.08791987        0.17595628
        -12.70840841        0.10002934        0.09982611        0.19985545
        -12.64774775        0.10395557        0.10370320        0.20765877
        -12.58708709        0.09359612        0.09329004        0.18688617
        -12.52642643        0.08356208        0.08327421        0.16683628
        -12.46576577        0.07899337        0.07882138        0.15781475
        -12.40510511        0.07033555        0.07028489        0.14062043
        -12.34444444        0.05828003        0.05829609        0.11657612
        -12.28378378        0.05171583        0.05174603        0.10346186
        -12.22312312        0.04589103        0.04589179        0.09178282
        -12.16246246        0.04524777        0.04515656        0.09040433
        -12.10180180        0.05754907        0.05730610        0.11485517
        -12.04114114        0.06278643        0.06242758        0.12521402
        -11.98048048        0.05728100        0.05680192        0.11408292
        -11.91981982        0.06899002        0.06821214        0.13720216
        -11.85915916        0.10240099        0.10139865        0.20379963
        -11.79849850        0.12635002        0.12557129        0.25192131
        -11.73783784        0.12545134        0.12509183        0.25054318
        -11.67717718        0.12407943        0.12388978        0.24796921
        -11.61651652        0.14076945        0.14042976        0.28119921
        -11.55585586        0.17043999        0.16983233        0.34027232
        -11.49519520        0.20561848        0.20501159        0.41063006
        -11.43453453        0.23109523        0.23080371        0.46189894
        -11.37387387        0.22508482        0.22488032        0.44996514
        -11.31321321        0.18168255        0.18133556        0.36301810
        -11.25255255        0.13242428        0.13198782        0.26441210
        -11.19189189        0.11296465        0.11241659        0.22538124
        -11.13123123        0.11183818        0.11121036        0.22304855
        -11.07057057        0.09728284        0.09683042        0.19411325
        -11.00990991        0.07578594        0.07565773        0.15144367
        -10.94924925        0.07816087        0.07814156        0.15630243
        -10.88858859        0.11134732        0.11117429        0.22252160
        -10.82792793        0.14963385        0.14913132        0.29876517
        -10.76726727        0.15453959        0.15392107        0.30846066
        -10.70660661        0.12024927        0.11968313        0.23993239
        -10.64594595        0.10662463        0.10588121        0.21250584
        -10.58528529        0.14519366        0.14440878        0.28960244
        -10.52462462        0.19953019        0.19895873        0.39848892
        -10.46396396        0.23607935        0.23543163        0.47151098
        -10.40330330        0.24218380        0.24074002        0.48292383
        -10.34264264        0.22708191        0.22461858        0.45170048
        -10.28198198        0.21084153        0.20842411        0.41926564
        -10.22132132        0.19841115        0.19721167        0.39562282
        -10.16066066        0.18631316        0.18631073        0.37262389
        -10.10000000        0.17242452        0.17265162        0.34507614
        -10.03933934        0.17106167        0.17063356        0.34169523
         -9.97867868        0.21338373        0.21212185        0.42550559
         -9.91801802        0.29960979        0.29819646        0.59780625
         -9.85735736        0.35920600        0.35874498        0.71795099
         -9.79669670        0.35465227        0.35488089        0.70953316
         -9.73603604        0.32682915        0.32656870        0.65339785
         -9.67537538        0.31137087        0.31027891        0.62164978
         -9.61471471        0.31835807        0.31700788        0.63536595
         -9.55405405        0.32509949        0.32425518        0.64935467
         -9.49339339        0.30708435        0.30643958        0.61352393
         -9.43273273        0.27917747        0.27808999        0.55726746
         -9.37207207        0.26598650        0.26478094        0.53076744
         -9.31141141        0.27227293        0.27136032        0.54363325
         -9.25075075        0.28367313        0.28278032        0.56645345
         -9.19009009        0.29876033        0.29765106        0.59641139
         -9.12942943        0.31857610        0.31751915        0.63609525
         -9.06876877        0.32753721        0.32679729        0.65433450
         -9.00810811        0.32183033        0.32115757        0.64298790
         -8.94744745        0.32111380        0.32040929        0.64152309
         -8.88678679        0.32709135        0.32658019        0.65367154
         -8.82612613        0.32080120        0.32026774        0.64106894
         -8.76546547        0.30157239        0.30094019        0.60251258
         -8.70480480        0.28310812        0.28273688        0.56584500
         -8.64414414        0.27112813        0.27102308        0.54215122
         -8.58348348        0.25457903        0.25459632        0.50917535
         -8.52282282        0.23485346        0.23603643        0.47088990
         -8.46216216        0.26587128        0.27181976        0.53769104
         -8.40150150        0.42290706        0.43477663        0.85768369
         -8.34084084        0.60899105        0.61507146        1.22406251
         -8.28018018        0.57823824        0.56927989        1.14751813
         -8.21951952        0.40465405        0.38702510        0.79167915
         -8.15885886        0.32293115        0.29759683        0.62052798
         -8.09819820        0.30122030        0.26950434        0.57072464
         -8.03753754        0.27631497        0.24074531        0.51706028
         -7.97687688        0.31103842        0.26408741        0.57512583
         -7.91621622        0.42485012        0.36332333        0.78817345
         -7.85555556        0.59109118        0.53436943        1.12546061
         -7.79489489        0.75490024        0.75090800        1.50580823
         -7.73423423        0.93836058        1.00103599        1.93939657
         -7.67357357        1.21469250        1.30542250        2.52011500
         -7.61291291        1.54589901        1.61525268        3.16115169
         -7.55225225        1.92087906        1.91808991        3.83896897
         -7.49159159        2.34012702        2.21751319        4.55764021
         -7.43093093        2.67337397        2.45936871        5.13274267
         -7.37027027        2.69468957        2.53688853        5.23157810
         -7.30960961        2.23201931        2.26404428        4.49606359
         -7.24894895        1.44237079        1.60106490        3.04343569
         -7.18828829        0.84805479        1.00665607        1.85471086
         -7.12762763        0.73100944        0.84451120        1.57552064
         -7.06696697        1.02696297        1.05517130        2.08213428
         -7.00630631        1.63293534        1.60325775        3.23619309
         -6.94564565        2.03962256        2.02878254        4.06840511
         -6.88498498        1.72725136        1.74126006        3.46851143
         -6.82432432        1.22980471        1.21567148        2.44547619
         -6.76366366        1.04926953        0.98108202        2.03035155
         -6.70300300        1.09411979        1.01904511        2.11316490
         -6.64234234        1.31839546        1.30004355        2.61843901
         -6.58168168        1.58636647        1.63045183        3.21681830
         -6.52102102        1.71608602        1.75959145        3.47567747
         -6.46036036        1.79364476        1.78238316        3.57602792
         -6.39969970        1.92185372        1.84347482        3.76532854
         -6.33903904        1.97935702        1.87939058        3.85874760
         -6.27837838        1.77149717        1.77127752        3.54277468
         -6.21771772        1.32803027        1.43099101        2.75902128
         -6.15705706        0.93686541        1.02007790        1.95694331