Siesta Version:                                        siesta-3.2-pl-3
Architecture  : x86_64-unknown-linux-gnu--Intel
Compiler flags: mpif90 -O3 -xSSSE3 -axSSE4.2,SSE4.1 -ip
PARALLEL version
NetCDF support

* Running on   64 nodes in parallel
>> Start of run:   2-SEP-2014   1:32:54

                           ***********************       
                           *  WELCOME TO SIESTA  *       
                           ***********************       

reinit: Reading from standard input
************************** Dump of input data file ****************************
SystemName      optical
SystemLabel     optical
NumberOfAtoms   1282
NumberOfSpecies 4
MD.TypeOfRun    CG
MD.NumCGsteps   0
MD.ConstantVolume  .true.
SolutionMethod  diagon
XC.functional   GGA
XC.authors      PBE
PAO.BasisSize   DZP
DM.NumberPulay  7
DM.MixingWeight 0.1
DirectPhi       .true.
SaveMemory      .true.
MeshCutoff      500 Ry
MaxSCFiterations 200
UseSaveData     .true.
WriteMullikenPop 1
PAO.EnergyShift 0.001 Ry
WriteDM.NetCDF .false.
WriteDMHS.NetCDF .false.
OpticalCalculation      .true.
%block Optical.Mesh
 1 1 1
%endblock Optical.Mesh
Optical.PolarizationType  polarized
%block Optical.Vector
 0.0 0.0 1.0
%endblock Optical.Vector
Optical.Broaden         0.05 eV
Optical.EnergyMinimum   0.001 eV
Optical.EnergyMaximum   100.0 eV
%block ChemicalSpeciesLabel
 1   1   H
 2   6   C
 3   9   F
 4  47   Ag
%endblock ChemicalSpeciesLabel
LatticeConstant 1.0 Ang
%block LatticeParameters
  22.534   24.472   23.649   90.0 90.0 90.0
%endblock LatticeParameters
AtomicCoordinatesFormat Ang
%block AtomicCoordinatesAndAtomicSpecies < struct.coor
%endblock AtomicCoordinatesAndAtomicSpecies
************************** End of input data file *****************************

reinit: -----------------------------------------------------------------------
reinit: System Name: optical
reinit: -----------------------------------------------------------------------
reinit: System Label: optical                                                     
reinit: -----------------------------------------------------------------------

initatom: Reading input for the pseudopotentials and atomic orbitals ----------
 Species number:            1  Label: H Atomic number:           1
 Species number:            2  Label: C Atomic number:           6
 Species number:            3  Label: F Atomic number:           9
 Species number:            4  Label: Ag Atomic number:          47
Ground state valence configuration:   1s01
Reading pseudopotential information in formatted form from H.psf

Valence configuration for pseudopotential generation:
1s( 1.00) rc: 1.33
2p( 0.00) rc: 1.33
3d( 0.00) rc: 0.37
4f( 0.00) rc: 1.33
Ground state valence configuration:   2s02  2p02
Reading pseudopotential information in formatted form from C.psf

Valence configuration for pseudopotential generation:
2s( 2.00) rc: 1.56
2p( 2.00) rc: 1.56
3d( 0.00) rc: 1.56
4f( 0.00) rc: 1.56
Ground state valence configuration:   2s02  2p05
Reading pseudopotential information in formatted form from F.psf

Valence configuration for pseudopotential generation:
2s( 2.00) rc: 1.41
2p( 5.00) rc: 1.41
3d( 0.00) rc: 1.41
4f( 0.00) rc: 1.41
Ground state valence configuration:   5s01  4d10
Reading pseudopotential information in formatted form from Ag.psf

Valence configuration for pseudopotential generation:
5s( 1.00) rc: 2.52
5p( 0.00) rc: 2.72
4d(10.00) rc: 2.52
4f( 0.00) rc: 2.52
For H, standard SIESTA heuristics set lmxkb to 2
 (one more than the basis l, including polarization orbitals).
Use PS.lmax or PS.KBprojectors blocks to override.
For C, standard SIESTA heuristics set lmxkb to 3
 (one more than the basis l, including polarization orbitals).
Use PS.lmax or PS.KBprojectors blocks to override.
For F, standard SIESTA heuristics set lmxkb to 3
 (one more than the basis l, including polarization orbitals).
Use PS.lmax or PS.KBprojectors blocks to override.
For Ag, standard SIESTA heuristics set lmxkb to 3
 (one more than the basis l, including polarization orbitals).
Use PS.lmax or PS.KBprojectors blocks to override.

<basis_specs>
===============================================================================
H                    Z=   1    Mass=  1.0100        Charge= 0.17977+309
Lmxo=0 Lmxkb= 2    BasisType=split      Semic=F
L=0  Nsemic=0  Cnfigmx=1
          n=1  nzeta=2  polorb=1
            splnorm:   0.15000    
               vcte:    0.0000    
               rinn:    0.0000    
                rcs:    0.0000      0.0000    
            lambdas:   1.00000     1.00000    
-------------------------------------------------------------------------------
L=0  Nkbl=1  erefs: 0.17977+309
L=1  Nkbl=1  erefs: 0.17977+309
L=2  Nkbl=1  erefs: 0.17977+309
===============================================================================
</basis_specs>

atom: Called for H                     (Z =   1)

read_vps: Pseudopotential generation method:
read_vps: ATM 3.2.2 Troullier-Martins                       
Total valence charge:    1.00000

xc_check: Exchange-correlation functional:
xc_check: GGA Perdew, Burke & Ernzerhof 1996
V l=0 = -2*Zval/r beyond r=  1.2656
V l=1 = -2*Zval/r beyond r=  1.2498
V l=2 = -2*Zval/r beyond r=  0.3563
All V_l potentials equal beyond r=  1.2656
This should be close to max(r_c) in ps generation
All pots = -2*Zval/r beyond r=  1.2656

VLOCAL1: 99.0% of the norm of Vloc inside     27.100 Ry
VLOCAL1: 99.9% of the norm of Vloc inside     61.762 Ry
atom: Maximum radius for 4*pi*r*r*local-pseudopot. charge    1.48935
atom: Maximum radius for r*vlocal+2*Zval:    1.24984
GHOST: No ghost state for L =  0
GHOST: No ghost state for L =  1
GHOST: No ghost state for L =  2

KBgen: Kleinman-Bylander projectors: 
   l= 0   rc=  1.398961   el= -0.477209   Ekb= -2.001853   kbcos= -0.352188
   l= 1   rc=  1.470814   el=  0.001006   Ekb= -0.423408   kbcos= -0.024395
   l= 2   rc=  1.489346   el=  0.001895   Ekb= -0.481957   kbcos= -0.001574

KBgen: Total number of  Kleinman-Bylander projectors:    9
atom: -------------------------------------------------------------------------

atom: SANKEY-TYPE ORBITALS:
atom: Selected multiple-zeta basis: split     

SPLIT: Orbitals with angular momentum L= 0

SPLIT: Basis orbitals for state 1s

SPLIT: PAO cut-off radius determined from an
SPLIT: energy shift=  0.001000 Ry

   izeta = 1
                 lambda =    1.000000
                     rc =    7.026209
                 energy =   -0.476258
                kinetic =    0.873901
    potential(screened) =   -1.350160
       potential(ionic) =   -1.868508

   izeta = 2
                 rmatch =    4.103729
              splitnorm =    0.150000
                 energy =   -0.388153
                kinetic =    1.411813
    potential(screened) =   -1.799966
       potential(ionic) =   -2.346436

POLgen: Perturbative polarization orbital with L=  1

POLgen: Polarization orbital for state 1s

   izeta = 1
                     rc =    7.026209
                 energy =    0.513491
                kinetic =    1.100165
    potential(screened) =   -0.586674
       potential(ionic) =   -1.048593
atom: Total number of Sankey-type orbitals:  5

atm_pop: Valence configuration (for local Pseudopot. screening):
 1s( 1.00)                                                            
Vna: chval, zval:    1.00000   1.00000

Vna:  Cut-off radius for the neutral-atom potential:   7.026209

atom: _________________________________________________________________________

<basis_specs>
===============================================================================
C                    Z=   6    Mass=  12.010        Charge= 0.17977+309
Lmxo=1 Lmxkb= 3    BasisType=split      Semic=F
L=0  Nsemic=0  Cnfigmx=2
          n=1  nzeta=2  polorb=0
            splnorm:   0.15000    
               vcte:    0.0000    
               rinn:    0.0000    
                rcs:    0.0000      0.0000    
            lambdas:   1.00000     1.00000    
L=1  Nsemic=0  Cnfigmx=2
          n=1  nzeta=2  polorb=1
            splnorm:   0.15000    
               vcte:    0.0000    
               rinn:    0.0000    
                rcs:    0.0000      0.0000    
            lambdas:   1.00000     1.00000    
-------------------------------------------------------------------------------
L=0  Nkbl=1  erefs: 0.17977+309
L=1  Nkbl=1  erefs: 0.17977+309
L=2  Nkbl=1  erefs: 0.17977+309
L=3  Nkbl=1  erefs: 0.17977+309
===============================================================================
</basis_specs>

atom: Called for C                     (Z =   6)

read_vps: Pseudopotential generation method:
read_vps: ATM 3.2.2 Troullier-Martins                       
Total valence charge:    4.00000

xc_check: Exchange-correlation functional:
xc_check: GGA Perdew, Burke & Ernzerhof 1996
V l=0 = -2*Zval/r beyond r=  1.5227
V l=1 = -2*Zval/r beyond r=  1.5227
V l=2 = -2*Zval/r beyond r=  1.5227
V l=3 = -2*Zval/r beyond r=  1.5227
All V_l potentials equal beyond r=  1.4851
This should be close to max(r_c) in ps generation
All pots = -2*Zval/r beyond r=  1.5227

VLOCAL1: 99.0% of the norm of Vloc inside     19.682 Ry
VLOCAL1: 99.9% of the norm of Vloc inside     44.856 Ry
atom: Maximum radius for 4*pi*r*r*local-pseudopot. charge    1.79142
atom: Maximum radius for r*vlocal+2*Zval:    1.54183
GHOST: No ghost state for L =  0
GHOST: No ghost state for L =  1
GHOST: No ghost state for L =  2
GHOST: No ghost state for L =  3

KBgen: Kleinman-Bylander projectors: 
   l= 0   rc=  1.661951   el= -1.010689   Ekb=  5.289847   kbcos=  0.316429
   l= 1   rc=  1.661951   el= -0.388490   Ekb= -4.102504   kbcos= -0.351025
   l= 2   rc=  1.747182   el=  0.001971   Ekb= -1.006005   kbcos= -0.008530
   l= 3   rc=  1.791422   el=  0.003065   Ekb= -0.421399   kbcos= -0.001072

KBgen: Total number of  Kleinman-Bylander projectors:   16
atom: -------------------------------------------------------------------------

atom: SANKEY-TYPE ORBITALS:
atom: Selected multiple-zeta basis: split     

SPLIT: Orbitals with angular momentum L= 0

SPLIT: Basis orbitals for state 2s

SPLIT: PAO cut-off radius determined from an
SPLIT: energy shift=  0.001000 Ry

   izeta = 1
                 lambda =    1.000000
                     rc =    5.801806
                 energy =   -1.009895
                kinetic =    0.828418
    potential(screened) =   -1.838313
       potential(ionic) =   -5.395016

   izeta = 2
                 rmatch =    3.475094
              splitnorm =    0.150000
                 energy =   -0.868818
                kinetic =    1.308521
    potential(screened) =   -2.177339
       potential(ionic) =   -5.999546

SPLIT: Orbitals with angular momentum L= 1

SPLIT: Basis orbitals for state 2p

SPLIT: PAO cut-off radius determined from an
SPLIT: energy shift=  0.001000 Ry

   izeta = 1
                 lambda =    1.000000
                     rc =    7.449784
                 energy =   -0.387666
                kinetic =    2.318076
    potential(screened) =   -2.705742
       potential(ionic) =   -6.097636

   izeta = 2
                 rmatch =    3.792903
              splitnorm =    0.150000
                 energy =   -0.276721
                kinetic =    3.399803
    potential(screened) =   -3.676524
       potential(ionic) =   -7.455899

POLgen: Perturbative polarization orbital with L=  2

POLgen: Polarization orbital for state 2p

   izeta = 1
                     rc =    7.449784
                 energy =    0.929908
                kinetic =    1.970732
    potential(screened) =   -1.040824
       potential(ionic) =   -3.695745
atom: Total number of Sankey-type orbitals: 13

atm_pop: Valence configuration (for local Pseudopot. screening):
 2s( 2.00)                                                            
 2p( 2.00)                                                            
Vna: chval, zval:    4.00000   4.00000

Vna:  Cut-off radius for the neutral-atom potential:   7.449784

atom: _________________________________________________________________________

<basis_specs>
===============================================================================
F                    Z=   9    Mass=  19.000        Charge= 0.17977+309
Lmxo=1 Lmxkb= 3    BasisType=split      Semic=F
L=0  Nsemic=0  Cnfigmx=2
          n=1  nzeta=2  polorb=0
            splnorm:   0.15000    
               vcte:    0.0000    
               rinn:    0.0000    
                rcs:    0.0000      0.0000    
            lambdas:   1.00000     1.00000    
L=1  Nsemic=0  Cnfigmx=2
          n=1  nzeta=2  polorb=1
            splnorm:   0.15000    
               vcte:    0.0000    
               rinn:    0.0000    
                rcs:    0.0000      0.0000    
            lambdas:   1.00000     1.00000    
-------------------------------------------------------------------------------
L=0  Nkbl=1  erefs: 0.17977+309
L=1  Nkbl=1  erefs: 0.17977+309
L=2  Nkbl=1  erefs: 0.17977+309
L=3  Nkbl=1  erefs: 0.17977+309
===============================================================================
</basis_specs>

atom: Called for F                     (Z =   9)

read_vps: Pseudopotential generation method:
read_vps: ATM 3.2.2 Troullier-Martins                       
Total valence charge:    7.00000

xc_check: Exchange-correlation functional:
xc_check: GGA Perdew, Burke & Ernzerhof 1996
V l=0 = -2*Zval/r beyond r=  1.3199
V l=1 = -2*Zval/r beyond r=  1.3199
V l=2 = -2*Zval/r beyond r=  1.3199
V l=3 = -2*Zval/r beyond r=  1.3199
All V_l potentials equal beyond r=  1.3199
This should be close to max(r_c) in ps generation
All pots = -2*Zval/r beyond r=  1.3199

VLOCAL1: 99.0% of the norm of Vloc inside     24.916 Ry
VLOCAL1: 99.9% of the norm of Vloc inside     56.784 Ry
atom: Maximum radius for 4*pi*r*r*local-pseudopot. charge    1.61221
atom: Maximum radius for r*vlocal+2*Zval:    1.38760
GHOST: No ghost state for L =  0
GHOST: No ghost state for L =  1
GHOST: No ghost state for L =  2
GHOST: No ghost state for L =  3

KBgen: Kleinman-Bylander projectors: 
   l= 0   rc=  1.495695   el= -2.197581   Ekb=  5.601452   kbcos=  0.238748
   l= 1   rc=  1.458760   el= -0.816694   Ekb= -9.171639   kbcos= -0.518972
   l= 2   rc=  1.552860   el=  0.001997   Ekb= -1.845583   kbcos= -0.004774
   l= 3   rc=  1.592177   el=  0.003102   Ekb= -0.701684   kbcos= -0.000616

KBgen: Total number of  Kleinman-Bylander projectors:   16
atom: -------------------------------------------------------------------------

atom: SANKEY-TYPE ORBITALS:
atom: Selected multiple-zeta basis: split     

SPLIT: Orbitals with angular momentum L= 0

SPLIT: Basis orbitals for state 2s

SPLIT: PAO cut-off radius determined from an
SPLIT: energy shift=  0.001000 Ry

   izeta = 1
                 lambda =    1.000000
                     rc =    4.066195
                 energy =   -2.196755
                kinetic =    1.966455
    potential(screened) =   -4.163210
       potential(ionic) =  -14.868929

   izeta = 2
                 rmatch =    2.259523
              splitnorm =    0.150000
                 energy =   -1.883468
                kinetic =    3.053766
    potential(screened) =   -4.937234
       potential(ionic) =  -16.545925

SPLIT: Orbitals with angular momentum L= 1

SPLIT: Basis orbitals for state 2p

SPLIT: PAO cut-off radius determined from an
SPLIT: energy shift=  0.001000 Ry

   izeta = 1
                 lambda =    1.000000
                     rc =    5.221176
                 energy =   -0.815825
                kinetic =    5.800203
    potential(screened) =   -6.616028
       potential(ionic) =  -16.867051

   izeta = 2
                 rmatch =    2.375385
              splitnorm =    0.150000
                 energy =   -0.513701
                kinetic =    8.562067
    potential(screened) =   -9.075768
       potential(ionic) =  -20.580843

POLgen: Perturbative polarization orbital with L=  2

POLgen: Polarization orbital for state 2p

   izeta = 1
                     rc =    5.221176
                 energy =    2.534714
                kinetic =    5.071044
    potential(screened) =   -2.536330
       potential(ionic) =  -10.352162
atom: Total number of Sankey-type orbitals: 13

atm_pop: Valence configuration (for local Pseudopot. screening):
 2s( 2.00)                                                            
 2p( 5.00)                                                            
Vna: chval, zval:    7.00000   7.00000

Vna:  Cut-off radius for the neutral-atom potential:   5.221176

atom: _________________________________________________________________________

<basis_specs>
===============================================================================
Ag                   Z=  47    Mass=  107.87        Charge= 0.17977+309
Lmxo=2 Lmxkb= 3    BasisType=split      Semic=F
L=0  Nsemic=0  Cnfigmx=5
          n=1  nzeta=2  polorb=1
            splnorm:   0.15000    
               vcte:    0.0000    
               rinn:    0.0000    
                rcs:    0.0000      0.0000    
            lambdas:   1.00000     1.00000    
L=1  Nsemic=0  Cnfigmx=5
L=2  Nsemic=0  Cnfigmx=4
          n=1  nzeta=2  polorb=0
            splnorm:   0.15000    
               vcte:    0.0000    
               rinn:    0.0000    
                rcs:    0.0000      0.0000    
            lambdas:   1.00000     1.00000    
-------------------------------------------------------------------------------
L=0  Nkbl=1  erefs: 0.17977+309
L=1  Nkbl=1  erefs: 0.17977+309
L=2  Nkbl=1  erefs: 0.17977+309
L=3  Nkbl=1  erefs: 0.17977+309
===============================================================================
</basis_specs>

atom: Called for Ag                    (Z =  47)

read_vps: Pseudopotential generation method:
read_vps: ATM 3.2.2 Troullier-Martins                       
Total valence charge:   11.00000

xc_check: Exchange-correlation functional:
xc_check: GGA Perdew, Burke & Ernzerhof 1996
V l=0 = -2*Zval/r beyond r=  2.4592
V l=1 = -2*Zval/r beyond r=  2.6507
V l=2 = -2*Zval/r beyond r=  2.4592
V l=3 = -2*Zval/r beyond r=  2.4592
All V_l potentials equal beyond r=  2.6507
This should be close to max(r_c) in ps generation
All pots = -2*Zval/r beyond r=  2.6507

VLOCAL1: 99.0% of the norm of Vloc inside      6.178 Ry
VLOCAL1: 99.9% of the norm of Vloc inside     14.079 Ry
atom: Maximum radius for 4*pi*r*r*local-pseudopot. charge    3.19739
atom: Maximum radius for r*vlocal+2*Zval:    2.82168
GHOST: No ghost state for L =  0
GHOST: No ghost state for L =  1
GHOST: No ghost state for L =  2
GHOST: No ghost state for L =  3

KBgen: Kleinman-Bylander projectors: 
   l= 0   rc=  2.966357   el= -0.323666   Ekb=  3.565490   kbcos=  0.247453
   l= 1   rc=  3.003670   el= -0.054265   Ekb=  1.619308   kbcos=  0.223076
   l= 2   rc=  2.786631   el= -0.547066   Ekb= -7.840816   kbcos= -0.714112
   l= 3   rc=  3.079709   el=  0.002953   Ekb= -2.732950   kbcos= -0.012571

KBgen: Total number of  Kleinman-Bylander projectors:   16
atom: -------------------------------------------------------------------------

atom: SANKEY-TYPE ORBITALS:
atom: Selected multiple-zeta basis: split     

SPLIT: Orbitals with angular momentum L= 0

SPLIT: Basis orbitals for state 5s

SPLIT: PAO cut-off radius determined from an
SPLIT: energy shift=  0.001000 Ry

   izeta = 1
                 lambda =    1.000000
                     rc =    9.486283
                 energy =   -0.322725
                kinetic =    0.270535
    potential(screened) =   -0.593260
       potential(ionic) =   -7.743453

   izeta = 2
                 rmatch =    6.768941
              splitnorm =    0.150000
                 energy =   -0.277703
                kinetic =    0.444695
    potential(screened) =   -0.722398
       potential(ionic) =   -8.538416

SPLIT: Orbitals with angular momentum L= 2

SPLIT: Basis orbitals for state 4d

SPLIT: PAO cut-off radius determined from an
SPLIT: energy shift=  0.001000 Ry

   izeta = 1
                 lambda =    1.000000
                     rc =    5.899358
                 energy =   -0.546288
                kinetic =    5.940648
    potential(screened) =   -6.486936
       potential(ionic) =  -18.280755

   izeta = 2
                 rmatch =    2.650723
              splitnorm =    0.150000
                 energy =   -0.238526
                kinetic =    8.222011
    potential(screened) =   -8.460537
       potential(ionic) =  -21.296963

POLgen: Perturbative polarization orbital with L=  1

POLgen: Polarization orbital for state 5s

   izeta = 1
                     rc =    9.486283
                 energy =   -0.053026
                kinetic =    0.478302
    potential(screened) =   -0.531328
       potential(ionic) =   -7.012902
atom: Total number of Sankey-type orbitals: 15

atm_pop: Valence configuration (for local Pseudopot. screening):
 5s( 1.00)                                                            
 5p( 0.00)                                                            
 4d(10.00)                                                            
Vna: chval, zval:   11.00000  11.00000

Vna:  Cut-off radius for the neutral-atom potential:   9.486283

atom: _________________________________________________________________________

prinput: Basis input ----------------------------------------------------------

PAO.BasisType split     

%block ChemicalSpeciesLabel
    1    1 H                       # Species index, atomic number, species label
    2    6 C                       # Species index, atomic number, species label
    3    9 F                       # Species index, atomic number, species label
    4   47 Ag                      # Species index, atomic number, species label
%endblock ChemicalSpeciesLabel

%block PAO.Basis                 # Define Basis set
H                     1                    # Species label, number of l-shells
 n=1   0   2 P   1                   # n, l, Nzeta, Polarization, NzetaPol
   7.026      4.104   
   1.000      1.000   
C                     2                    # Species label, number of l-shells
 n=2   0   2                         # n, l, Nzeta 
   5.802      3.475   
   1.000      1.000   
 n=2   1   2 P   1                   # n, l, Nzeta, Polarization, NzetaPol
   7.450      3.793   
   1.000      1.000   
F                     2                    # Species label, number of l-shells
 n=2   0   2                         # n, l, Nzeta 
   4.066      2.260   
   1.000      1.000   
 n=2   1   2 P   1                   # n, l, Nzeta, Polarization, NzetaPol
   5.221      2.375   
   1.000      1.000   
Ag                    2                    # Species label, number of l-shells
 n=5   0   2 P   1                   # n, l, Nzeta, Polarization, NzetaPol
   9.486      6.769   
   1.000      1.000   
 n=4   2   2                         # n, l, Nzeta 
   5.899      2.651   
   1.000      1.000   
%endblock PAO.Basis

prinput: ----------------------------------------------------------------------

Dumping basis to NetCDF file H.ion.nc
Dumping basis to NetCDF file C.ion.nc
Dumping basis to NetCDF file F.ion.nc
Dumping basis to NetCDF file Ag.ion.nc
coor:   Atomic-coordinates input format  =     Cartesian coordinates
coor:                                          (in Angstroms)

siesta: WARNING: XV file not found

siesta: Atomic coordinates (Bohr) and species
siesta:     17.80690  28.73708  42.06343  2        1
siesta:     16.91117  27.95095  43.76230  1        2
siesta:     18.10736  30.74397  42.30910  1        3
siesta:     19.63615  27.83190  41.82721  1        4
siesta:     16.19307  28.29677  39.67104  2        5
siesta:     17.84847  27.73741  37.80399  3        6
siesta:     14.88349  26.14248  40.06221  3        7
siesta:     14.36381  30.34334  38.67326  2        8
siesta:     12.69330  29.35313  37.99674  1        9
siesta:     13.79123  31.49230  40.28898  1       10
siesta:     15.15183  32.16882  36.53976  2       11
siesta:     15.29545  30.83089  34.35901  3       12
siesta:     13.14872  33.71651  36.19394  3       13
siesta:     17.49509  33.87335  36.84778  2       14
siesta:     16.82991  35.77631  37.23518  1       15
siesta:     18.50610  33.18927  38.52586  1       16
siesta:     19.41505  34.12091  34.67838  2       17
siesta:     18.24153  35.16215  32.66015  3       18
siesta:     21.17061  35.90481  35.39836  3       19
siesta:     20.90038  31.81544  33.68627  2       20
siesta:     20.12181  30.17138  34.65003  1       21
siesta:     20.46196  31.63403  31.66993  1       22
siesta:     23.80867  31.61135  33.89603  2       23
siesta:     24.51543  29.56289  32.51464  3       24
siesta:     24.90282  33.57478  32.63747  3       25
siesta:     25.11258  31.47340  36.48874  2       26
siesta:     27.08546  31.94394  36.15614  1       27
siesta:     24.28488  32.95306  37.65659  1       28
siesta:     25.08612  29.04510  38.13658  2       29
siesta:     24.60991  29.78021  40.55921  3       30
siesta:     22.97719  27.69773  37.48273  3       31
siesta:     27.36325  27.21018  38.18382  2       32
siesta:     26.68483  25.40738  38.91137  1       33
siesta:     27.92827  26.92105  36.24874  1       34
siesta:     29.76698  27.86780  39.67293  2       35
siesta:     31.79088  27.43505  38.13091  3       36
siesta:     29.72351  30.41893  40.00741  3       37
siesta:     30.29232  26.67161  42.31287  2       38
siesta:     31.59812  27.99630  43.25774  1       39
siesta:     28.50464  26.68105  43.31821  1       40
siesta:     31.39592  24.00520  42.61712  2       41
siesta:     29.66493  22.35358  41.71194  3       42
siesta:     33.37447  23.78599  40.97684  3       43
siesta:     32.35590  23.01498   0.50834  2       44
siesta:     32.07055  20.95518   0.50078  1       45
siesta:     34.38736  23.33813   0.49511  1       46
siesta:     31.38458  24.08079   3.06325  2       47
siesta:     31.50742  26.64515   2.97632  3       48
siesta:     28.85046  23.62537   3.20687  3       49
siesta:     32.52031  23.13404   5.56147  2       50
siesta:     31.29199  23.75198   7.10537  1       51
siesta:     32.42960  21.06101   5.54257  1       52
siesta:     35.23585  23.83324   6.30224  2       53
siesta:     36.13536  25.54155   4.60904  3       54
siesta:     35.13758  25.15038   8.52834  3       55
siesta:     37.31833  21.81690   6.62160  2       56
siesta:     38.03453  21.33313   4.76589  1       57
siesta:     38.89436  22.75987   7.61371  1       58
siesta:     36.74196  19.35836   8.05969  2       59
siesta:     35.01664  19.90827   9.91540  3       60
siesta:     35.46261  17.81446   6.45153  3       61
siesta:     38.89814  17.80879   9.24832  2       62
siesta:     38.25563  15.85103   9.36927  1       63
siesta:     40.49685  17.84091   7.95575  1       64
siesta:     39.90158  18.50610  11.89394  2       65
siesta:     42.20327  17.37415  12.17929  3       66
siesta:     40.45149  21.04022  11.83347  3       67
siesta:     38.33878  17.92973  14.29578  2       68
siesta:     37.59990  19.70229  15.01199  1       69
siesta:     36.69661  16.77511  13.75532  1       70
siesta:     39.59356  16.58991  16.55779  2       71
siesta:     41.47384  18.11681  17.41950  3       72
siesta:     37.87580  16.55779  18.46074  3       73
siesta:     40.67826  13.88571  16.33858  2       74
siesta:     42.42626  14.03689  15.28222  1       75
siesta:     41.18849  13.31880  18.23775  1       76
siesta:     39.13813  11.70686  15.17451  2       77
siesta:     38.41437  12.39094  12.78211  3       78
siesta:     40.73495   9.73587  14.81924  3       79
siesta:     36.78731  10.66940  16.53700  2       80
siesta:     37.44116   9.41840  18.03555  1       81
siesta:     35.87835  12.28511  17.44407  1       82
siesta:     34.70672   9.23510  15.07435  2       83
siesta:     32.79999   8.80424  16.73353  3       84
siesta:     33.67493  10.84892  13.32257  3       85
siesta:     35.30766   6.71231  13.72887  2       86
siesta:     37.27675   6.27767  14.13516  1       87
siesta:     34.15870   5.29312  14.68129  1       88
siesta:     34.92971   6.37783  10.84325  2       89
siesta:     34.63302   3.85315  10.44074  3       90
siesta:     32.66960   7.38316  10.17807  3       91
siesta:     36.96306   7.23010   8.95164  2       92
siesta:     38.09689   8.65306   9.89839  1       93
siesta:     38.18949   5.59170   8.57747  1       94
siesta:     36.18071   8.29401   6.36838  2       95
siesta:     35.19994  10.63916   6.82569  3       96
siesta:     38.36335   8.79479   5.08337  3       97
siesta:     34.36657   6.81247   4.61093  2       98
siesta:     32.72629   6.27011   5.70131  1       99
siesta:     33.70706   8.14283   3.20309  1      100
siesta:     35.32466   4.43708   3.21254  2      101
siesta:     37.26352   5.18730   1.66863  3      102
siesta:     36.42638   2.81758   4.89628  3      103
siesta:     33.48596   2.89506   1.54202  2      104
siesta:     32.15937   4.21220   0.69164  1      105
siesta:     34.57255   2.05791  44.67692  1      106
siesta:     31.81166   0.78046   2.69475  2      107
siesta:     31.38080   1.35115   5.13817  3      108
siesta:     29.47218   0.95242   1.60816  3      109
siesta:     32.56188  44.19693   2.61160  2      110
siesta:     33.30644  43.73206   4.45787  1      111
siesta:     30.81011  43.16136   2.39428  1      112
siesta:     34.52720  43.13491   0.70298  2      113
siesta:     33.70517  43.59411  43.01018  3      114
siesta:     36.71172  44.48606   0.91841  3      115
siesta:     35.27553  40.29654   0.83337  2      116
siesta:     33.78454  39.22884  44.61078  1      117
siesta:     36.99329  40.10567  44.40480  1      118
siesta:     35.78009  39.05121   3.44119  2      119
siesta:     37.09156  40.75007   4.85093  3      120
siesta:     33.54076  38.76397   4.66763  3      121
siesta:     37.22762  36.53031   3.61127  2      122
siesta:     38.97562  36.73440   2.57003  1      123
siesta:     37.72462  36.29787   5.59359  1      124
siesta:     35.98796  34.02264   2.73821  2      125
siesta:     35.48340  34.24752   0.25133  3      126
siesta:     37.80588  32.19906   2.81002  3      127
siesta:     33.57289  32.94739   3.96087  2      128
siesta:     31.99308  34.13225   3.32403  1      129
siesta:     33.33478  31.08412   3.14451  1      130
siesta:     33.26486  32.66015   6.82569  2      131
siesta:     33.09101  35.00908   7.88583  3      132
siesta:     30.92727  31.59623   7.19797  3      133
siesta:     35.16026  31.09546   8.37149  2      134
siesta:     34.06611  29.88792   9.63383  1      135
siesta:     36.10890  29.84068   7.03356  1      136
siesta:     37.26352  32.29543   9.98910  2      137
siesta:     38.38224  30.38492  11.27222  3      138
siesta:     39.09845  33.12313   8.41117  3      139
siesta:     36.75330  34.47429  11.90150  2      140
siesta:     36.39803  36.17693  10.80735  1      141
siesta:     35.00341  34.01130  12.90872  1      142
siesta:     38.74507  35.17916  13.91973  2      143
siesta:     37.98918  37.39014  14.97420  3      144
siesta:     38.54665  33.46328  15.81323  3      145
siesta:     41.54187  35.44561  13.21675  2      146
siesta:     42.32610  33.55777  12.89550  1      147
siesta:     41.60423  36.44716  11.40450  1      148
siesta:      0.78046  36.85345  15.02711  2      149
siesta:      3.18419  36.60401  14.08980  3      150
siesta:      0.30425  39.35923  14.87593  3      151
siesta:      0.91841  36.05410  17.84658  2      152
siesta:     41.56832  36.09567  18.57413  1      153
siesta:      1.53446  34.10768  17.89004  1      154
siesta:      2.60404  37.58667  19.69662  2      155
siesta:      3.68497  39.50474  18.37948  3      156
siesta:      1.08659  38.75452  21.44840  3      157
siesta:      4.72243  36.25819  21.16116  2      158
siesta:      3.80780  34.81822  22.29878  1      159
siesta:      5.90918  35.27553  19.77410  1      160
siesta:      6.54223  37.74540  22.94506  2      161
siesta:      5.55958  37.64714  25.32423  3      162
siesta:      8.70219  36.36023  23.16805  3      163
siesta:      7.29057  40.51574  22.43673  2      164
siesta:      5.54824  41.63635  22.44051  1      165
siesta:      8.42818  41.12046  24.02977  1      166
siesta:      8.78345  41.16203  20.01032  2      167
siesta:     11.16073  41.74407  20.70385  3      168
siesta:      9.12927  38.96239  18.73664  3      169
siesta:      7.90473  43.24451  18.13004  2      170
siesta:      5.87138  43.41459  18.22264  1      171
siesta:      8.69463  45.02085  18.78577  1      172
siesta:      8.58503  42.98373  15.29167  2      173
siesta:      8.19952  45.29486  14.21642  3      174
siesta:     11.13616  42.65492  15.19340  3      175
siesta:      7.40395  40.96361  13.56635  2      176
siesta:      7.92740  39.14569  14.34681  1      177
siesta:      5.33848  41.14124  13.74965  1      178
siesta:      7.98410  40.85401  10.71664  2      179
siesta:      6.48932  38.92837   9.81146  3      180
siesta:      7.01845  42.96483   9.61493  3      181
siesta:     10.69396  40.34189   9.72642  2      182
siesta:     12.02244  41.10723  11.13427  1      183
siesta:     10.95853  38.30287   9.66217  1      184
siesta:     11.58781  41.38691   7.14695  2      185
siesta:     13.73076  40.12646   6.53090  3      186
siesta:      9.89272  40.60267   5.37438  3      187
siesta:     11.99410  44.26307   6.83703  2      188
siesta:     10.14783  45.09455   6.88239  1      189
siesta:     13.00699  44.89802   8.53968  1      190
siesta:     13.37927  45.43281   4.53534  2      191
siesta:     14.99120   0.94486   5.44619  3      192
siesta:     14.94018  43.69804   3.44497  3      193
siesta:     11.88071   0.50078   2.38106  2      194
siesta:     10.92451   2.14106   3.17285  1      195
siesta:     13.30746   1.22265   1.07903  1      196
siesta:      9.87949  45.32510   0.78802  2      197
siesta:      8.07480  44.48228   2.39428  3      198
siesta:      8.66251   0.84282  44.06276  3      199
siesta:     10.73554  43.19727  43.67915  2      200
siesta:     11.43663  44.13268  41.99729  1      201
siesta:     12.33236  42.29398  44.60700  1      202
siesta:      8.95542  41.08644  42.77964  2      203
siesta:      7.88016  39.95072   0.12661  3      204
siesta:      6.96931  42.21083  41.56832  3      205
siesta:     10.00988  39.03420  40.98818  2      206
siesta:      8.38094  38.09689  40.16426  1      207
siesta:     11.00010  40.00174  39.45939  1      208
siesta:     11.78056  36.91581  41.91981  2      209
siesta:     10.83191  34.75019  40.95416  3      210
siesta:     13.98965  37.21439  40.65180  3      211
siesta:     12.33047  36.50385   0.06992  2      212
siesta:     12.70652  38.34256   0.92786  1      213
siesta:     10.58058  35.77442   0.86172  1      214
siesta:     14.48476  34.70294   0.92786  2      215
siesta:     13.78934  32.25953   0.50834  3      216
siesta:     16.54078  35.01664  44.07977  3      217
siesta:     15.46741  34.86546   3.64906  2      218
siesta:     17.21541  33.75241   3.67741  1      219
siesta:     15.97953  36.83834   4.04591  1      220
siesta:     13.83658  33.93005   5.87516  2      221
siesta:     14.61704  35.17916   7.97843  3      222
siesta:     11.42907  34.78231   5.47643  3      223
siesta:     13.66839  31.06900   6.49121  2      224
siesta:     12.86715  30.16382   4.83392  1      225
siesta:     15.59592  30.39248   6.74255  1      226
siesta:     12.13205  30.11658   8.77400  2      227
siesta:     10.83380  28.07000   7.92362  3      228
siesta:     13.80823  29.11502  10.42373  3      229
siesta:     10.31413  31.89103  10.22342  2      230
siesta:     11.41584  33.46328  10.96420  1      231
siesta:      8.98943  32.67905   8.87227  1      232
siesta:      8.72865  30.91971  12.47976  2      233
siesta:      6.59515  32.35968  12.56479  3      234
siesta:      7.86126  28.57645  11.86748  3      235
siesta:      9.79256  30.82145  15.20285  2      236
siesta:      8.14661  30.51153  16.44251  1      237
siesta:     10.96986  29.12069  15.34458  1      238
siesta:     11.26844  33.02676  16.35559  2      239
siesta:     10.40862  35.20561  15.31435  3      240
siesta:     10.62215  33.21006  18.82735  3      241
siesta:     14.19374  33.03998  16.14016  2      242
siesta:     14.94585  32.12914  17.83902  1      243
siesta:     14.71530  31.79843  14.53956  1      244
siesta:     15.62237  35.56466  15.80190  2      245
siesta:     18.10925  34.91648  15.54300  3      246
siesta:     14.98553  36.53787  13.51533  3      247
siesta:     15.43529  37.72273  17.76532  2      248
siesta:     13.97075  39.00774  17.07179  1      249
siesta:     14.74554  36.87802  19.51710  1      250
siesta:     17.74265  39.38002  18.47586  2      251
siesta:     19.43395  37.85501  19.72119  3      252
siesta:     18.98231  39.99607  16.31779  3      253
siesta:     17.41950  41.77430  20.12370  2      254
siesta:     15.91717  41.38502  21.50131  1      255
siesta:     19.17506  41.98406  21.16305  1      256
siesta:     16.85825  44.35189  18.85569  2      257
siesta:     19.06923  45.49328  18.24909  3      258
siesta:     15.74709  43.93426  16.56157  3      259
siesta:     15.20852   0.10393  20.22575  2      260
siesta:     15.32191   1.81036  19.10325  1      261
siesta:     13.28478  45.69171  20.15016  1      262
siesta:     15.75654   0.87305  22.98664  2      263
siesta:     14.01044   2.61727  23.69340  3      264
siesta:     15.24065  45.11534  24.51921  3      265
siesta:     18.36059   1.99744  23.71229  2      266
siesta:     19.55678   1.83681  22.04366  1      267
siesta:     18.04878   3.98921  24.11291  1      268
siesta:     19.86670   0.84093  25.92894  2      269
siesta:     20.18606  44.57299  25.45840  3      270
siesta:     22.23642   1.79902  25.81178  3      271
siesta:     18.97097   1.11494  28.67661  2      272
siesta:     19.02955   3.12183  29.16415  1      273
siesta:     17.01888   0.52723  28.72574  1      274
siesta:     20.40149  45.98839  30.82711  2      275
siesta:     22.92239   0.18897  30.51909  3      276
siesta:     19.85158   0.94486  33.01353  3      277
siesta:     20.08780  43.11412  31.26364  2      278
siesta:     21.13471  42.17303  29.74619  1      279
siesta:     21.02132  42.67948  33.03054  1      280
siesta:     17.42517  41.88202  31.39025  2      281
siesta:     17.37415  40.37401  33.48407  3      282
siesta:     15.70741  43.70371  31.92127  3      283
siesta:     16.46330  40.28898  29.15471  2      284
siesta:     17.19085  41.15069  27.44261  1      285
siesta:     17.34202  38.45216  29.33990  1      286
siesta:     13.59470  39.84300  28.82400  2      287
siesta:     12.46653  42.13335  28.51976  3      288
siesta:     13.33580  38.72428  26.53366  3      289
siesta:     12.06591  38.25185  30.77987  2      290
siesta:     11.02845  36.83078  29.70273  1      291
siesta:     13.38116  37.26919  32.01008  1      292
siesta:     10.12327  39.53120  32.54677  2      293
siesta:      8.91384  37.69060  33.87524  3      294
siesta:     11.44419  40.81621  34.31177  3      295
siesta:      8.09370  41.31132  31.43939  2      296
siesta:      8.90061  43.18971  31.43561  1      297
siesta:      7.84048  40.78220  29.45706  1      298
siesta:      5.43108  41.53998  32.58456  2      299
siesta:      4.58637  43.90780  32.03654  3      300
siesta:      3.90040  40.01686  31.20317  3      301
siesta:      4.83581  41.02030  35.39647  2      302
siesta:      4.50889  38.99829  35.57978  1      303
siesta:      6.55168  41.45494  36.49441  1      304
siesta:      2.58326  42.37335  36.71172  2      305
siesta:      3.39584  44.73550  37.34667  3      306
siesta:      0.79180  42.81554  34.95995  3      307
siesta:      1.32092  41.23951  39.07010  2      308
siesta:      2.29980  39.48017  39.53120  1      309
siesta:      1.61005  42.55287  40.60645  1      310
siesta:     41.04298  40.62535  39.06443  2      311
siesta:     40.62724  38.89247  37.18982  3      312
siesta:     40.60267  39.30065  41.21494  3      313
siesta:     38.98318  42.72106  38.98884  2      314
siesta:     37.57155  42.19949  40.41370  1      315
siesta:     39.88458  44.45582  39.62757  1      316
siesta:     37.49785  43.43348  36.56055  2      317
siesta:     37.46195  41.44360  34.90137  3      318
siesta:     35.03932  43.67537  37.24085  3      319
siesta:     38.25374  45.80887  35.01475  2      320
siesta:     40.26063  46.14146  35.39080  1      321
siesta:     38.05721  45.27597  33.03621  1      322
siesta:     36.93471   2.15051  35.30199  2      323
siesta:     38.59956   3.96087  34.62736  3      324
siesta:     35.13569   2.27712  33.47084  3      325
siesta:     35.61379   2.95175  37.76808  2      326
siesta:     33.58801   2.94042  37.35234  1      327
siesta:     35.98040   1.52690  39.16270  1      328
siesta:     36.19205   5.53501  38.99640  2      329
siesta:     35.41159   7.36238  37.34289  3      330
siesta:     34.62925   5.82414  41.01841  3      331
siesta:     38.86790   6.28334  39.85434  2      332
siesta:     39.75418   7.29246  38.26886  1      333
siesta:     38.62035   7.61938  41.40959  1      334
siesta:     40.72550   4.25189  40.84078  2      335
siesta:     39.41781   2.66074  42.39602  3      336
siesta:     41.43226   2.77034  38.86979  3      337
siesta:      0.56314   5.06447  42.23540  2      338
siesta:      1.77445   5.96965  40.84645  1      339
siesta:      0.06047   6.48365  43.66781  1      340
siesta:      2.23555   3.05947  43.55820  2      341
siesta:      2.79869   1.19620  41.88580  3      342
siesta:      4.50889   4.18386  44.00607  3      343
siesta:      1.37950   1.85760   1.37572  2      344
siesta:      2.92341   2.08437   2.67963  1      345
siesta:     42.38846   2.94608   2.09382  1      346
siesta:      0.59526  45.30620   1.52123  2      347
siesta:     41.37935  45.24195   3.35615  3      348
siesta:     41.92548  44.69960  44.04764  3      349
siesta:      2.58515  43.26908   2.08437  2      350
siesta:      4.01189  43.37868   0.58393  1      351
siesta:      3.49033  43.82277   3.83048  1      352
siesta:      1.82926  40.47228   2.37917  2      353
siesta:     41.84989  40.31732   2.63239  3      354
siesta:      2.27712  39.31955   0.12283  3      355
siesta:      3.06703  38.89247   4.50322  2      356
siesta:      5.11171  38.84712   4.13661  1      357
siesta:      2.82514  39.92237   6.26822  1      358
siesta:      2.22610  36.15614   4.99833  2      359
siesta:      0.30236  36.28276   6.68396  3      360
siesta:      1.11305  35.29065   2.83837  3      361
siesta:      4.15173  34.20406   5.99043  2      362
siesta:      5.55013  33.90359   4.47865  1      363
siesta:      5.09470  35.08467   7.62127  1      364
siesta:      3.24466  31.55466   6.87672  2      365
siesta:      5.36493  30.11847   7.04301  3      366
siesta:      2.51145  31.86646   9.32958  3      367
siesta:      1.20754  30.01642   5.46509  2      368
siesta:     41.95005  30.86302   5.81469  1      369
siesta:      1.57414  30.29610   3.44308  1      370
siesta:      0.95809  27.13837   5.93563  2      371
siesta:      0.97321  26.64326   8.46409  3      372
siesta:     41.18849  26.45996   5.18163  3      373
siesta:      2.85727  25.34502   4.63172  2      374
siesta:      2.15618  24.94817   2.72688  1      375
siesta:      4.65629  26.35413   4.44653  1      376
siesta:      3.44686  22.71830   5.75044  2      377
siesta:      1.36438  21.82068   6.95231  3      378
siesta:      3.75300  21.13660   3.77756  3      379
siesta:      5.76745  22.38004   7.50411  2      380
siesta:      7.43041  23.02821   6.47609  1      381
siesta:      5.47076  23.61592   9.12738  1      382
siesta:      6.38539  19.73631   8.56802  2      383
siesta:      8.71731  19.96685   9.67351  3      384
siesta:      4.78101  19.33191  10.52578  3      385
siesta:      6.54979  17.34769   6.88616  2      386
siesta:      6.98254  17.95430   4.97376  1      387
siesta:      8.14472  16.27055   7.61749  1      388
siesta:      4.36149  15.43340   6.71042  2      389
siesta:      2.13350  16.62015   6.09815  3      390
siesta:      4.81313  13.97831   4.64873  3      391
siesta:      3.83804  13.63438   8.92518  2      392
siesta:      5.59548  12.72542   9.42596  1      393
siesta:      3.29946  14.83625  10.52956  1      394
siesta:      1.80847  11.54434   8.78534  2      395
siesta:      1.83492  10.31413  11.05490  3      396
siesta:     42.09178  12.67062   8.62093  3      397
siesta:      1.82737   9.44674   6.74066  2      398
siesta:      0.17952   8.25055   7.06569  1      399
siesta:      1.54958  10.39539   4.94353  1      400
siesta:      4.12905   7.70253   6.40995  2      401
siesta:      3.77001   6.47987   4.16685  3      402
siesta:      6.21720   9.17462   6.03012  3      403
siesta:      4.76400   5.71453   8.45086  2      404
siesta:      5.03990   6.75955  10.22153  1      405
siesta:      3.09348   4.50889   8.65306  1      406
siesta:      7.05246   3.94764   8.11071  2      407
siesta:      7.03356   2.27334  10.04390  3      408
siesta:      6.57058   2.42830   6.09437  3      409
siesta:      9.76611   4.94730   7.84048  2      410
siesta:     11.02656   3.32403   7.64961  1      411
siesta:      9.83225   5.98477   6.05846  1      412
siesta:     11.01900   6.61215   9.89461  2      413
siesta:     13.39816   7.06569   9.03100  3      414
siesta:      9.87760   8.89116   9.82847  3      415
siesta:     11.19096   5.82603  12.69519  2      416
siesta:     11.82969   7.48710  13.72131  1      417
siesta:      9.26722   5.42541  13.33391  1      418
siesta:     12.83880   3.56025  13.53044  2      419
siesta:     12.00921   2.89506  15.88315  3      420
siesta:     12.17740   1.54769  12.07347  3      421
siesta:     15.75465   3.74355  13.54178  2      422
siesta:     16.47653   1.88973  14.09736  1      423
siesta:     16.35937   4.04591  11.61426  1      424
siesta:     17.15683   5.68430  15.22364  2      425
siesta:     15.43529   7.02978  16.64471  3      426
siesta:     18.52310   4.36338  16.95274  3      427
siesta:     19.06168   7.54757  14.03122  2      428
siesta:     20.48086   7.97276  15.48820  1      429
siesta:     20.00465   6.52145  12.49298  1      430
siesta:     18.20941  10.12516  12.97864  2      431
siesta:     15.68473  10.01177  12.46086  3      432
siesta:     18.46641  11.80512  14.90995  3      433
siesta:     19.61159  11.31757  10.70908  2      434
siesta:     20.10858  13.25076  11.25521  1      435
siesta:     21.36147  10.27256  10.42562  1      436
siesta:     18.35492  11.42340   8.09181  2      437
siesta:     20.11047  12.32858   6.40428  3      438
siesta:     17.95430   8.99321   7.33970  3      439
siesta:     15.83213  12.87093   7.74032  2      440
siesta:     14.32602  11.45741   7.64961  1      441
siesta:     15.52411  13.94807   9.45619  1      442
siesta:     15.44285  14.69452   5.48210  2      443
siesta:     15.72064  13.34714   3.30324  3      444
siesta:     12.96731  15.38616   5.51611  3      445
siesta:     17.04345  17.10392   5.13061  2      446
siesta:     18.97286  16.44251   4.81124  1      447
siesta:     16.39905  18.00910   3.39962  1      448
siesta:     17.13226  19.16939   7.18474  2      449
siesta:     15.13104  18.85569   8.77400  3      450
siesta:     19.14860  18.65916   8.70219  3      451
siesta:     17.31746  21.98886   6.49688  2      452
siesta:     17.11715  23.00931   8.27889  1      453
siesta:     19.23553  22.35169   5.80902  1      454
siesta:     15.50143  23.21340   4.58826  2      455
siesta:     15.64883  25.76832   4.88683  3      456
siesta:     16.49732  22.83924   2.23933  3      457
siesta:     12.64416  22.52176   4.47109  2      458
siesta:     12.33614  20.87014   5.67485  1      459
siesta:     11.63316  24.08268   5.34793  1      460
siesta:     11.36860  21.98508   1.88406  2      461
siesta:     12.37960  19.80056   0.92219  3      462
siesta:      8.93652  21.35958   2.38106  3      463
siesta:     11.34592  23.99008  44.41047  2      464
siesta:     13.28667  24.58913  44.15347  1      465
siesta:     10.69963  23.00931  42.70783  1      466
siesta:      9.70942  26.39193  44.61078  2      467
siesta:      9.65839  27.04388   2.41129  3      468
siesta:     10.96986  28.28921  43.42214  3      469
siesta:      7.00522  26.45618  43.53931  2      470
siesta:      7.11671  25.93272  41.56265  1      471
siesta:      5.92807  24.98219  44.48039  1      472
siesta:      5.50099  28.94873  43.67537  2      473
siesta:      3.00845  28.34401  43.90213  3      474
siesta:      6.06224  30.15815   1.20754  3      475
siesta:      5.76745  30.91593  41.53053  2      476
siesta:      7.77056  31.32411  41.29242  1      477
siesta:      5.12305  29.98808  39.80332  1      478
siesta:      4.40684  33.50297  41.70438  2      479
siesta:      5.39139  34.73129  43.75096  3      480
siesta:      5.11549  34.89759  39.63135  3      481
siesta:      1.50989  33.70517  41.85367  2      482
siesta:      0.94675  32.64314  43.54498  1      483
siesta:      1.07525  35.70261  42.21083  1      484
siesta:     42.40358  32.80944  39.62757  2      485
siesta:      0.39306  34.27209  37.60179  3      486
siesta:      0.60093  30.45862  38.96428  3      487
siesta:     39.51608  32.78109  39.89402  2      488
siesta:     39.04554  33.34801  41.81021  1      489
siesta:     38.79042  34.24941  38.62602  1      490
siesta:     37.94950  30.38492  39.25908  2      491
siesta:     35.52687  30.85357  39.97717  3      492
siesta:     37.76808  30.27342  36.70794  3      493
siesta:     38.65436  27.71284  40.20394  2      494
siesta:     37.12179  26.48074  39.60301  1      495
siesta:     40.36079  27.15160  39.20616  1      496
siesta:     39.05688  27.14404  43.01774  2      497
siesta:     40.36835  29.13014  44.00607  3      498
siesta:     36.79865  27.21018  44.21394  3      499
siesta:     40.45338  24.71574  43.86245  2      500
siesta:     42.45460  25.16171  43.96072  1      501
siesta:     39.82599  24.34724   1.09037  1      502
siesta:     40.21528  22.19484  42.44138  2      503
siesta:     41.15447  20.40716  44.05520  3      504
siesta:     37.70194  21.65249  42.20705  3      505
siesta:     41.45494  21.69595  39.83922  2      506
siesta:     41.12991  19.67773  39.44238  1      507
siesta:     40.42882  22.78822  38.39547  1      508
siesta:      1.72532  22.14004  39.41403  2      509
siesta:      2.28846  24.50976  40.17937  3      510
siesta:      2.99333  20.57346  41.01274  3      511
siesta:      2.81947  21.90382  36.70228  2      512
siesta:      2.17697  20.10858  35.97473  1      513
siesta:      1.99177  23.41750  35.58356  1      514
siesta:      5.72776  21.98130  36.30543  2      515
siesta:      6.96931  22.31956  38.55610  3      516
siesta:      6.43452  19.62670  35.57978  3      517
siesta:      6.91451  23.86914  34.41382  2      518
siesta:      8.81369  23.23986  33.99430  1      519
siesta:      5.83359  23.75765  32.64692  1      520
siesta:      7.14884  26.69995  35.12435  2      521
siesta:      4.85093  27.43694  35.99741  3      522
siesta:      8.76077  26.88892  37.13691  3      523
siesta:      7.96709  28.66338  33.11935  2      524
siesta:     10.05146  28.75597  33.15148  1      525
siesta:      7.41718  27.90182  31.28821  1      526
siesta:      7.06569  31.44506  33.21951  2      527
siesta:      8.13905  32.50330  35.31333  3      528
siesta:      8.14283  32.66204  31.20695  3      529
siesta:      4.25000  32.20850  33.27620  2      530
siesta:      3.57725  31.67182  35.13569  1      531
siesta:      4.24244  34.25886  33.16660  1      532
siesta:      2.27523  31.19750  31.34679  2      533
siesta:      3.41285  29.48352  29.78021  3      534
siesta:      0.61416  29.73296  32.67527  3      535
siesta:      0.75400  33.01920  29.66304  2      536
siesta:      2.13917  34.23807  28.70306  1      537
siesta:     42.37524  31.86268  28.25331  1      538
siesta:     41.34911  34.81633  30.86491  2      539
siesta:     39.71072  33.43116  32.30299  3      540
siesta:     42.58122  36.33000  32.53354  3      541
siesta:     39.70127  36.57755  29.21707  2      542
siesta:     38.90381  35.44750  27.70529  1      543
siesta:     38.12524  37.24085  30.36980  1      544
siesta:     40.83889  38.92270  27.93205  2      545
siesta:      0.71432  38.45216  27.38592  3      546
siesta:     39.79009  39.12113  25.60958  3      547
siesta:     40.67070  41.51163  29.22652  2      548
siesta:     38.72806  41.79320  29.80099  1      549
siesta:     41.83855  41.47384  30.92538  1      550
siesta:     41.36045  43.90591  27.72985  2      551
siesta:     39.29876  44.47661  26.30122  3      552
siesta:     41.54754  45.84477  29.44761  3      553
siesta:      1.13951  43.94938  26.00453  2      554
siesta:      2.65885  42.94404  27.00042  1      555
siesta:      0.65574  42.83066  24.33401  1      556
siesta:      2.26767   0.21732  25.06345  2      557
siesta:      3.22765  46.03753  22.70885  3      558
siesta:      0.28913   1.81603  24.63826  3      559
siesta:      4.19708   1.69509  26.65460  2      560
siesta:      3.82292   3.67552  26.28799  1      561
siesta:      3.75867   1.29635  28.66338  1      562
siesta:      7.04490   1.30202  26.33712  2      563
siesta:      7.48332  45.06810  26.84735  3      564
siesta:      7.63639   1.50989  23.82757  3      565
siesta:      8.92329   2.86105  27.91505  2      566
siesta:      8.45275   2.63806  29.91060  1      567
siesta:     10.77711   1.97476  27.59190  1      568
siesta:      9.26722   5.72020  27.36702  2      569
siesta:     10.06280   5.96965  24.92739  3      570
siesta:      6.94286   6.80113  27.36513  3      571
siesta:     10.96231   7.39261  29.10746  2      572
siesta:     10.68641   9.34848  28.44417  1      573
siesta:     10.20453   7.23765  31.01609  1      574
siesta:     13.84603   6.95986  29.34179  2      575
siesta:     14.18618   4.72243  30.56066  3      576
siesta:     14.76066   6.59893  26.99286  3      577
siesta:     15.49954   8.97809  30.63814  2      578
siesta:     17.30612   8.99321  29.67816  1      579
siesta:     14.64727  10.80924  30.23563  1      580
siesta:     16.01355   8.81747  33.51998  2      581
siesta:     16.42173  11.21931  34.33823  3      582
siesta:     13.85170   8.15795  34.75208  3      583
siesta:     18.14894   7.17907  34.60468  2      584
siesta:     17.57257   6.64050  36.50385  1      585
siesta:     18.19618   5.44052  33.45006  1      586
siesta:     20.87014   8.17496  34.90137  2      587
siesta:     20.93439   9.70186  36.98195  3      588
siesta:     22.35547   6.15862  35.51742  3      589
siesta:     22.21185   9.63572  32.76786  2      590
siesta:     20.94573  11.09459  32.08378  1      591
siesta:     23.79355  10.61838  33.64281  1      592
siesta:     23.24931   8.25244  30.42838  2      593
siesta:     21.28210   6.92774  29.45517  3      594
siesta:     23.71985  10.08736  28.66905  3      595
siesta:     25.55478   6.51011  30.51909  2      596
siesta:     26.93239   7.37749  31.78143  1      597
siesta:     24.97274   4.72054  31.37514  1      598
siesta:     26.94940   5.85437  28.04166  2      599
siesta:     25.31100   6.26822  26.10280  3      600
siesta:     28.79188   7.62694  27.66938  3      601
siesta:     28.11347   3.20498  27.58812  2      602
siesta:     26.57523   1.83492  27.63348  1      603
siesta:     28.90337   3.24655  25.69462  1      604
siesta:     30.19217   2.15807  29.39659  2      605
siesta:     31.59434   4.14039  30.26965  3      606
siesta:     29.04132   1.20943  31.50553  3      607
siesta:     32.08378   0.18708  28.38748  2      608
siesta:     31.70584  46.09044  26.39948  1      609
siesta:     33.94516   1.02423  28.48952  1      610
siesta:     32.34645  43.81521  29.63848  2      611
siesta:     34.21539  42.58311  28.37803  3      612
siesta:     33.24974  44.10434  32.02142  3      613
siesta:     30.10146  41.99918  29.83501  2      614
siesta:     30.76286  40.39291  30.91404  1      615
siesta:     28.65582  42.91570  30.96884  1      616
siesta:     28.80511  40.87668  27.47474  2      617
siesta:     29.60446  42.18437  25.37903  3      618
siesta:     29.75753  38.51830  27.19695  3      619
siesta:     25.89682  40.73306  27.38781  2      620
siesta:     25.22785  40.65369  29.37014  1      621
siesta:     25.27510  42.53208  26.61869  1      622
siesta:     24.53621  38.67326  25.83824  2      623
siesta:     22.01910  39.18727  25.91571  3      624
siesta:     25.16549  38.99829  23.37403  3      625
siesta:     24.89715  35.87458  26.49019  2      626
siesta:     26.21618  35.09790  25.11069  1      627
siesta:     25.82312  35.77442  28.33268  1      628
siesta:     22.59168  34.10012  26.63759  2      629
siesta:     23.45718  31.82111  27.43505  3      630
siesta:     21.04022  34.91270  28.53299  3      631
siesta:     20.95140  33.65226  24.29055  2      632
siesta:     21.56178  35.01475  22.85625  1      633
siesta:     21.38226  31.76253  23.58001  1      634
siesta:     18.03744  33.87713  24.40771  2      635
siesta:     17.45352  36.40559  24.42472  3      636
siesta:     17.23242  33.02676  22.10603  3      637
siesta:     16.48220  32.61669  26.54310  2      638
siesta:     17.60281  31.06711  27.25364  1      639
siesta:     16.34047  33.98863  28.06622  1      640
siesta:     13.76288  31.62836  26.15193  2      641
siesta:     13.16006  30.26965  28.26276  3      642
siesta:     12.17362  33.62958  26.20484  3      643
siesta:     13.05045  29.99941  23.84079  2      644
siesta:     13.09581  31.28632  22.26665  1      645
siesta:     14.55090  28.59157  23.56111  1      646
siesta:     10.49176  28.59346  23.72930  2      647
siesta:     10.22720  27.68828  21.31612  3      648
siesta:     10.72609  26.49208  25.19195  3      649
siesta:      8.03323  29.99752  24.39259  2      650
siesta:      7.88772  29.94272  26.44673  1      651
siesta:      8.23354  31.97040  23.78977  1      652
siesta:      5.45753  29.08479  23.33435  2      653
siesta:      3.58292  30.33768  24.57023  3      654
siesta:      5.23076  29.98430  20.96463  3      655
siesta:      4.74321  26.24831  23.25876  2      656
siesta:      2.76089  26.24453  22.72019  1      657
siesta:      5.83170  25.38281  21.71863  1      658
siesta:      4.95108  24.55700  25.61147  2      659
siesta:      6.25689  25.75698  27.43883  3      660
siesta:      2.57192  24.30378  26.57712  3      661
siesta:      6.06791  21.86225  25.29399  2      662
siesta:      4.86794  20.84558  23.95796  1      663
siesta:      7.91607  22.07390  24.40393  1      664
siesta:      6.40806  20.11425  27.61458  2      665
siesta:      8.32425  21.08746  29.00542  3      666
siesta:      4.32558  20.31078  29.14904  3      667
siesta:      6.92396  17.24565  27.27065  2      668
siesta:      5.12872  16.27433  27.59379  1      669
siesta:      7.44930  16.89038  25.31856  1      670
siesta:      8.86660  15.86237  28.91660  2      671
siesta:      8.79479  13.37549  28.30622  3      672
siesta:     11.19096  16.57290  28.11536  3      673
siesta:      8.80424  16.09669  31.81544  2      674
siesta:      9.52422  17.98453  32.28598  1      675
siesta:      6.84081  16.03433  32.35023  1      676
siesta:     10.21775  14.23909  33.53509  2      677
siesta:      9.35415  11.87126  33.05321  3      678
siesta:     12.68007  14.17484  32.81511  3      679
siesta:     10.14783  14.56979  36.41504  2      680
siesta:      8.26000  15.18962  36.91392  1      681
siesta:     10.39350  12.69896  37.24085  1      682
siesta:     12.03189  16.37448  37.75485  2      683
siesta:     12.27000  18.46452  36.29787  3      684
siesta:     10.89239  17.25321  39.90158  3      685
siesta:     14.72286  15.46552  38.45405  2      686
siesta:     14.67373  13.41139  38.57877  1      687
siesta:     15.96252  15.90016  36.85723  1      688
siesta:     16.03244  16.41606  40.88991  2      689
siesta:     14.56413  15.66584  42.84011  3      690
siesta:     18.19051  14.97986  41.18093  3      691
siesta:     16.72219  19.23175  41.29809  2      692
siesta:     14.97798  20.31456  41.00518  1      693
siesta:     17.29478  19.45285  43.27286  1      694
siesta:     18.73853  20.51865  39.62190  2      695
siesta:     19.91583  18.76121  38.16492  3      696
siesta:     17.43840  22.00776  37.97973  3      697
siesta:     20.79455  22.17972  40.84645  2      698
siesta:     21.13471  23.76332  39.50663  1      699
siesta:     19.97819  22.99609  42.57744  1      700
siesta:     23.38726  21.08179  41.58344  2      701
siesta:     24.81589  20.97597  39.43671  3      702
siesta:     24.60424  22.87136  43.00262  3      703
siesta:     23.70284  18.53822  42.97239  2      704
siesta:     22.62381  17.10014  41.95194  1      705
siesta:     25.70218  18.02799  42.83066  1      706
siesta:     22.98286  18.26232   1.10549  2      707
siesta:     20.94195  19.74198   1.61005  3      708
siesta:     22.11547  15.85859   1.39840  3      709
siesta:     24.95573  18.81223   3.16718  2      710
siesta:     25.96107  20.46952   2.52845  1      711
siesta:     23.96174  19.34513   4.88872  1      712
siesta:     26.95506  16.82613   3.89851  2      713
siesta:     28.30244  16.36126   1.75745  3      714
siesta:     28.67850  17.96185   5.41596  3      715
siesta:     26.17461  14.31657   5.15706  2      716
siesta:     24.60991  14.70019   6.42696  1      717
siesta:     25.43950  13.10904   3.64717  1      718
siesta:     28.09268  12.65739   6.60649  2      719
siesta:     26.94373  10.38027   7.01656  3      720
siesta:     30.03721  12.05835   5.01911  3      721
siesta:     29.24541  13.50399   9.13494  2      722
siesta:     30.28476  11.86560   9.85304  1      723
siesta:     30.58901  14.99120   8.68896  1      724
siesta:     27.54655  14.49798  11.28923  2      725
siesta:     26.82656  16.90739  10.71475  3      726
siesta:     25.37525  13.10715  11.27789  3      727
siesta:     28.56322  14.51877  14.02933  2      728
siesta:     26.90215  14.58680  15.27277  1      729
siesta:     29.45517  12.69707  14.39594  1      730
siesta:     30.45295  16.57479  14.85514  2      731
siesta:     32.30677  15.44852  16.23086  3      732
siesta:     31.66426  17.42895  12.74243  3      733
siesta:     29.42872  18.86136  16.32346  2      734
siesta:     27.48797  19.16372  15.74331  1      735
siesta:     29.40226  18.32090  18.32468  1      736
siesta:     30.73830  21.46730  16.17417  2      737
siesta:     29.60635  22.95262  17.95618  3      738
siesta:     33.12691  21.16683  17.08124  3      739
siesta:     30.94050  22.96207  13.67406  2      740
siesta:     32.92093  22.90727  13.08069  1      741
siesta:     29.88981  21.93595  12.24354  1      742
siesta:     30.05233  25.75698  13.51155  2      743
siesta:     30.28287  26.43161  11.03412  3      744
siesta:     27.53521  25.81745  13.98398  3      745
siesta:     31.38458  27.81678  15.09325  2      746
siesta:     31.79654  27.00042  16.94518  1      747
siesta:     33.20061  28.20984  14.17673  1      748
siesta:     30.08445  30.39437  15.55434  2      749
siesta:     31.97796  32.10079  15.86426  3      750
siesta:     28.93739  31.12947  13.37549  3      751
siesta:     28.20606  30.75908  17.75398  2      752
siesta:     26.75664  29.26809  17.54611  1      753
siesta:     29.21329  30.37547  19.49064  1      754
siesta:     26.75475  33.26297  18.22264  2      755
siesta:     24.90849  33.49730  16.45007  3      756
siesta:     25.46596  32.94172  20.41850  3      757
siesta:     28.11725  35.84623  18.42673  2      758
siesta:     27.58623  36.65125  20.23331  1      759
siesta:     30.13547  35.46261  18.48342  1      760
siesta:     27.77143  37.85690  16.37070  2      761
siesta:     29.76320  39.45561  16.52755  3      762
siesta:     28.06055  36.70794  14.06902  3      763
siesta:     25.34502  39.50285  16.23653  2      764
siesta:     24.59480  39.19671  14.34114  1      765
siesta:     23.99008  38.76775  17.60659  1      766
siesta:     25.53021  42.38090  16.62393  2      767
siesta:     26.47318  43.34467  14.40539  3      768
siesta:     23.15482  43.28041  16.67117  3      769
siesta:     27.05333  43.53175  18.83491  2      770
siesta:     27.55789  42.04831  20.15205  1      771
siesta:     28.78810  44.24795  18.03366  1      772
siesta:     25.94406  45.69927  20.43740  2      773
siesta:     23.75954  44.81109  21.46352  3      774
siesta:     27.51820  46.03186  22.43295  3      775
siesta:     25.37336   2.06169  19.25632  2      776
siesta:     24.04488   1.74800  17.73698  1      777
siesta:     24.41905   3.14828  20.72274  1      778
siesta:     27.52387   3.76056  18.21886  2      779
siesta:     28.94306   4.52968  20.23520  3      780
siesta:     29.13014   2.34893  16.76188  3      781
siesta:     26.87570   6.18130  16.76755  2      782
siesta:     25.42816   7.14506  17.87304  1      783
siesta:     28.54055   7.36805  16.75621  1      784
siesta:     25.83446   6.07925  14.04256  2      785
siesta:     23.81812   4.50133  13.97453  3      786
siesta:     24.84046   8.40551  13.63060  3      787
siesta:     27.56923   5.51611  11.76544  2      788
siesta:     28.32323   7.36427  11.14561  1      789
siesta:     29.19628   4.39928  12.46275  1      790
siesta:     26.51287   4.21976   9.36927  2      791
siesta:     24.28110   5.30257   8.78534  3      792
siesta:     28.11158   4.91329   7.48332  3      793
siesta:     26.14815   1.31714   9.25021  2      794
siesta:     27.97552   0.47810   8.86849  1      795
siesta:     25.52832   0.65385  11.11159  1      796
siesta:     24.37559   0.16252   7.25466  2      797
siesta:     24.94251   1.21320   4.97943  3      798
siesta:     25.02376  43.93426   6.97687  3      799
siesta:     21.47486   0.25700   7.60048  2      800
siesta:     20.93250   2.24500   7.38127  1      801
siesta:     20.62637  45.45360   6.03012  1      802
siesta:     20.15583  45.61612  10.03067  2      803
siesta:     20.76621   1.02990  11.90150  3      804
siesta:     17.65005  46.01296   9.68296  3      805
siesta:     20.54133  42.93837  11.10970  2      806
siesta:     22.55767  42.50563  11.00010  1      807
siesta:     20.00654  43.02908  13.10715  1      808
siesta:     19.06356  40.67070   9.98910  2      809
siesta:     16.63716  40.83511  10.82436  3      810
siesta:     18.88593  41.00707   7.41907  3      811
siesta:     20.02166  37.96650  10.46720  2      812
siesta:     20.46952  37.81155  12.46653  1      813
siesta:     18.42484  36.73629  10.11382  1      814
siesta:     22.28177  36.91581   8.95731  2      815
siesta:     21.45407  36.54165   6.56869  3      816
siesta:     24.04300  38.76964   8.72298  3      817
siesta:     23.73119  34.57444   9.88327  2      818
siesta:     25.58501  34.57633   8.95920  1      819
siesta:     24.06000  34.86546  11.89205  1      820
siesta:     22.63326  31.91182   9.60359  2      821
siesta:     21.34069  31.43183  11.77489  3      822
siesta:     20.87392  31.90615   7.70631  3      823
siesta:     24.43417  29.68383   9.15195  2      824
siesta:     26.14626  30.43594   8.29968  1      825
siesta:     24.94817  28.92416  11.00010  1      826
siesta:     23.61781  27.41616   7.52678  2      827
siesta:     24.64771  25.32801   8.66629  3      828
siesta:     21.08746  27.04010   7.74977  3      829
siesta:     24.39070  27.24797   4.71109  2      830
siesta:     26.41460  27.70151   4.61660  1      831
siesta:     24.17339  25.26187   4.13094  1      832
siesta:     23.01498  28.79188   2.62105  2      833
siesta:     23.39482  27.55222   0.41574  3      834
siesta:     20.47708  28.61613   3.05191  3      835
siesta:     23.60836  31.60190   2.09004  2      836
siesta:     22.69562  32.04599   0.30425  1      837
siesta:     22.67105  32.70550   3.55080  1      838
siesta:     26.35413  32.63180   1.93130  2      839
siesta:     26.93806  33.49730   4.28590  3      840
siesta:     27.94528  30.64759   1.60627  3      841
siesta:     27.08735  34.62547  44.60889  2      842
siesta:     28.98463  34.15114  43.94560  1      843
siesta:     25.84202  34.40815  42.96483  1      844
siesta:     27.11569  37.45628   0.58204  2      845
siesta:     29.11313  37.92493   2.10138  3      846
siesta:     27.75253  38.78664  43.15947  3      847
siesta:     24.80455  38.76775   1.80658  2      848
siesta:     24.61180  37.96272   3.68497  1      849
siesta:     25.25620  40.75763   2.03524  1      850
siesta:     22.18350  38.64680   0.51967  2      851
siesta:     22.47830  38.16870  42.70027  3      852
siesta:     20.98920  36.54921   1.45509  3      853
siesta:     20.25220  40.81054   0.83715  2      854
siesta:     18.49476  40.08300   0.12094  1      855
siesta:     20.07079  41.13180   2.86483  1      856
siesta:     20.79644  43.39758  44.26685  2      857
siesta:     21.30478  45.08321   1.43052  3      858
siesta:     23.00931  43.21049  42.97995  3      859
siesta:     18.84247  44.64480  42.51319  2      860
siesta:     17.36848  45.40825  43.73017  1      861
siesta:     19.76276  46.23595  41.62501  1      862
siesta:     17.54044  43.09333  40.42693  2      863
siesta:     19.16750  41.25085  39.68426  3      864
siesta:     15.56379  41.79887  41.47573  3      865
siesta:     16.48787  44.36512  38.01753  2      866
siesta:     18.05445  44.48606  36.67960  1      867
siesta:     15.11026  43.06121  37.22384  1      868
siesta:     15.27277   0.75211  38.16681  2      869
siesta:     14.28822   1.01667  40.52897  3      870
siesta:     17.19840   2.44909  38.11768  3      871
siesta:     13.25076   1.65351  36.26764  2      872
siesta:     13.33769   3.71331  36.23362  1      873
siesta:     13.81390   0.97510  34.37791  1      874
siesta:     10.44641   0.89006  36.61724  2      875
siesta:      9.37871   0.66707  34.28720  3      876
siesta:     10.36137  44.71283  37.57155  3      877
siesta:      8.66251   2.49066  38.25563  2      878
siesta:      7.29246   1.17541  39.08522  1      879
siesta:      9.77367   3.32592  39.76741  1      880
siesta:      7.16018   4.66574  37.01219  2      881
siesta:      6.79168   6.45531  38.81877  3      882
siesta:      8.71542   5.76178  35.27553  3      883
siesta:      4.62227   4.10260  35.70450  2      884
siesta:      4.90951   2.50011  34.43460  1      885
siesta:      3.34860   3.49788  37.18227  1      886
siesta:      3.21254   6.11516  34.13603  2      887
siesta:      2.41696   4.92085  32.00630  3      888
siesta:      1.04502   6.67641  35.41348  3      889
siesta:      4.41251   8.65495  33.35368  2      890
siesta:      5.56525   9.28234  34.94672  1      891
siesta:      5.68808   8.28456  31.81355  1      892
siesta:      2.68908  10.91506  32.61102  2      893
siesta:      3.90607  12.16228  30.71940  3      894
siesta:      0.50645  10.05902  31.55277  3      895
siesta:      1.94264  12.85959  34.65759  2      896
siesta:      1.11116  11.78245  36.21284  1      897
siesta:      3.67741  13.69296  35.37947  1      898
siesta:      0.08504  15.04034  34.08311  2      899
siesta:     42.31476  16.30078  36.30921  3      900
siesta:      1.34926  16.75243  32.62236  3      901
siesta:     40.02064  14.62460  32.93416  2      902
siesta:     39.17593  16.51054  32.73574  1      903
siesta:     40.24551  13.86682  31.03121  1      904
siesta:     38.06477  12.98242  34.34390  2      905
siesta:     39.19483  10.82058  35.17538  3      906
siesta:     37.49785  14.17484  36.55488  3      907
siesta:     35.53253  12.21708  33.09479  2      908
siesta:     34.40059  11.24576  34.52909  1      909
siesta:     34.55555  13.96130  32.65259  1      910
siesta:     35.46828  10.56357  30.69294  2      911
siesta:     32.97573  10.11193  30.21484  3      912
siesta:     36.26008  11.90528  28.66149  3      913
siesta:     36.73440   7.93118  30.60602  2      914
siesta:     38.54854   8.11071  31.56033  1      915
siesta:     35.58923   6.59326  31.67560  1      916
siesta:     37.27108   6.64050  28.04544  2      917
siesta:     39.61623   7.37371  27.28766  3      918
siesta:     37.48651   4.11016  28.50842  3      919
siesta:     35.41159   6.99955  25.78532  2      920
siesta:     33.50297   7.03923  26.56956  1      921
siesta:     35.78576   8.86660  24.98597  1      922
siesta:     35.30577   5.13250  23.54411  2      923
siesta:     33.27620   3.59426  23.89182  3      924
siesta:     34.70861   6.48932  21.45407  3      925
siesta:     37.54698   3.43552  22.80522  2      926
siesta:     39.25341   4.58637  22.93750  1      927
siesta:     37.66982   1.94264  24.22441  1      928
siesta:     37.60368   2.16374  20.18984  2      929
siesta:     37.88713   4.01567  18.39838  3      930
siesta:     39.82032   0.89762  20.04622  3      931
siesta:     35.48718   0.39306  19.26766  2      932
siesta:     33.74485   1.47966  19.40938  1      933
siesta:     35.82355  46.21327  17.26454  1      934
siesta:     35.02798  44.07410  20.58479  2      935
siesta:     34.87113  44.52763  23.09435  3      936
siesta:     32.64881  43.36545  19.99142  3      937
siesta:     36.84589  41.79509  20.19362  2      938
siesta:     37.57344  41.85745  18.27177  1      939
siesta:     38.44838  42.09934  21.47108  1      940
siesta:     35.90859  39.06443  20.61881  2      941
siesta:     34.59145  38.38602  18.53633  3      942
siesta:     37.99107  37.60934  20.58291  3      943
siesta:     34.37791  38.32177  22.95829  2      944
siesta:     35.32089  39.16270  24.59857  1      945
siesta:     32.54110  39.26097  22.76365  1      946
siesta:     33.83178  35.54009  23.60836  2      947
siesta:     34.29854  35.23585  26.15382  3      948
siesta:     31.27687  35.25474  23.37214  3      949
siesta:     35.06388  33.28943  22.19673  2      950
siesta:     33.64470  31.80788  22.17028  1      951
siesta:     35.36813  33.85824  20.26165  1      952
siesta:     37.56777  32.11213  23.13971  2      953
siesta:     39.30632  33.99619  23.33057  3      954
siesta:     37.25597  31.17671  25.53777  3      955
siesta:     38.82444  29.99563  21.60525  2      956
siesta:     39.96205  30.90648  20.12937  1      957
siesta:     40.12079  29.02243  22.87325  1      958
siesta:     37.22573  27.90749  20.33913  2      959
siesta:     35.36624  27.17616  21.97185  3      960
siesta:     35.98607  28.98274  18.36437  3      961
siesta:     38.50507  25.45273  19.42639  2      962
siesta:     40.22284  25.19951  20.53755  1      963
siesta:     37.19549  23.90693  19.87426  1      964
siesta:     39.25152  25.14660  16.62960  2      965
siesta:     40.63669  22.97530  16.50865  3      966
siesta:     37.12746  24.64015  15.27088  3      967
siesta:     40.77275  27.16104  15.15561  2      968
siesta:     40.46472  26.76987  13.16384  1      969
siesta:     39.93938  28.98085  15.56190  1      970
siesta:      1.07336  27.38592  15.64316  2      971
siesta:      1.69697  29.83879  15.31057  3      972
siesta:      1.44186  27.00609  18.16217  3      973
siesta:      2.91018  25.71729  14.12949  2      974
siesta:      1.79524  24.40393  13.02022  1      975
siesta:      3.89095  26.96829  12.82369  1      976
siesta:      4.96242  24.15638  15.51466  2      977
siesta:      6.68207  23.42694  13.74020  3      978
siesta:      6.28712  25.73052  17.06990  3      979
siesta:      4.19708  21.75076  17.01510  2      980
siesta:      2.99900  22.34224  18.58735  1      981
siesta:      3.00845  20.62826  15.77922  1      982
siesta:      6.22665  19.98575  18.16217  2      983
siesta:      7.79701  21.44840  19.60403  3      984
siesta:      5.05313  18.44940  19.86481  3      985
siesta:      7.87827  18.25098  16.50298  2      986
siesta:      8.49621  19.36970  14.86081  1      987
siesta:      9.52611  17.73131  17.60281  1      988
siesta:      6.78979  15.80379  15.41072  2      989
siesta:      4.24244  16.22142  15.03656  3      990
siesta:      7.74032  15.51655  13.04289  3      991
siesta:      7.01845  13.25643  16.80156  2      992
siesta:      6.51389  13.61926  18.74798  1      993
siesta:      5.55013  12.01677  16.04189  1      994
siesta:      9.49210  11.73520  16.76944  2      995
siesta:      8.89494   9.25021  17.06423  3      996
siesta:     10.48231  11.84859  14.39027  3      997
siesta:     11.64828  12.32102  18.65727  2      998
siesta:     13.06368  10.85270  18.43995  1      999
siesta:     12.52889  14.07469  18.09036  1     1000
siesta:     11.10781  12.47976  21.52399  2     1001
siesta:     10.48609  14.91939  22.03233  3     1002
siesta:      8.95731  11.12671  22.00020  3     1003
siesta:     13.09959  11.65395  23.47419  2     1004
siesta:     12.62527  12.56857  25.28455  1     1005
siesta:     12.87849   9.61682  23.74631  1     1006
siesta:     15.93418  12.25110  23.06790  2     1007
siesta:     16.09291  14.54334  21.92839  3     1008
siesta:     16.91117  12.64605  25.40549  3     1009
siesta:     17.67839  10.37838  21.66383  2     1010
siesta:     16.86770   8.48298  21.91327  1     1011
siesta:     17.57257  10.81680  19.65316  1     1012
siesta:     20.50165  10.13649  22.39704  2     1013
siesta:     20.57535   8.88928  24.63259  3     1014
siesta:     21.55800   8.48676  20.74164  3     1015
siesta:     22.22508  12.50621  22.61436  2     1016
siesta:     21.17061  14.13327  21.89249  1     1017
siesta:     22.54066  12.86337  24.63826  1     1018
siesta:     24.87825  12.58558  21.37092  2     1019
siesta:     24.61747  11.87315  18.91050  3     1020
siesta:     25.56423  15.06679  21.21785  3     1021
siesta:     27.09112  11.08325  22.53688  2     1022
siesta:     26.50153  10.49743  24.40015  1     1023
siesta:     27.34057   9.39572  21.38226  1     1024
siesta:     29.74619  12.26433  22.80900  2     1025
siesta:     31.42427  10.30279  23.03577  3     1026
siesta:     30.36791  13.41706  20.59235  3     1027
siesta:     30.26020  14.10870  25.03699  2     1028
siesta:     28.61613  15.38616  25.20518  1     1029
siesta:     30.35090  12.96164  26.72830  1     1030
siesta:     32.66582  15.76788  25.09746  2     1031
siesta:     33.42549  16.01544  27.54655  3     1032
siesta:     34.54799  14.43184  23.99008  3     1033
siesta:     32.72062  18.43429  23.85402  2     1034
siesta:     34.45728  19.36403  24.50031  1     1035
siesta:     32.87558  18.15650  21.81501  1     1036
siesta:     30.51720  20.30323  24.30756  2     1037
siesta:     28.66338  19.65505  22.63704  3     1038
siesta:     29.53076  19.83079  26.63759  3     1039
siesta:     30.98963  23.17372  24.14126  2     1040
siesta:     32.34079  23.60836  25.63603  1     1041
siesta:     31.95150  23.49686  22.33846  1     1042
siesta:     28.74464  25.07290  24.28866  2     1043
siesta:     28.80322  26.45051  22.09658  3     1044
siesta:     26.56767  23.70095  24.22252  3     1045
siesta:     28.53110  26.90782  26.55822  2     1046
siesta:     26.52421  27.23285  26.87003  1     1047
siesta:     29.26998  25.91760  28.18906  1     1048
siesta:     29.82367  29.50997  26.48263  2     1049
siesta:     32.22740  29.10935  25.64359  3     1050
siesta:     28.64826  30.85735  24.66660  3     1051
siesta:     29.97674  31.17671  28.88070  2     1052
siesta:     30.43216  33.08156  28.23630  1     1053
siesta:     28.07756  31.23341  29.69139  1     1054
siesta:     31.84001  30.60413  31.07089  2     1055
siesta:     30.43216  29.75753  33.05888  3     1056
siesta:     33.25352  28.54999  30.41704  3     1057
siesta:     33.70706  32.62424  32.03087  2     1058
siesta:     35.07711  31.67560  33.25352  1     1059
siesta:     34.74452  33.36502  30.41704  1     1060
siesta:     32.66960  34.92593  33.51809  2     1061
siesta:     33.97351  36.96684  32.74708  3     1062
siesta:     30.29232  35.37947  32.66771  3     1063
siesta:     32.63180  34.92404  36.45661  2     1064
siesta:     31.10490  33.66359  37.02920  1     1065
siesta:     34.41571  34.08500  37.05943  1     1066
siesta:     32.30299  37.38258  38.01753  2     1067
siesta:     31.61324  36.64747  40.40236  3     1068
siesta:     34.64058  38.37468  38.38980  3     1069
[...]
siesta:   1083    0.731562   -0.194561   -0.105175
siesta:   1084   -0.183906    0.519844   -0.489950
siesta:   1085   -0.375001    0.404427   -0.688331
siesta:   1086   -0.491882   -1.434175    0.744875
siesta:   1087    1.502630    0.913875   -0.208411
siesta:   1088   -0.763680    0.199208   -0.255432
siesta:   1089   -0.512064   -0.133043   -0.194995
siesta:   1090   -0.014009   -0.218667    0.522591
siesta:   1091   -0.183695    0.012293    0.676198
siesta:   1092    1.255623    0.339081    1.145400
siesta:   1093    0.213848    0.076773   -1.654668
siesta:   1094   -0.222653   -0.867652    0.732636
siesta:   1095    0.214208    0.566080   -0.352006
siesta:   1096   -0.883758   -0.172928   -0.266125
siesta:   1097   -0.518823   -1.086266   -0.134703
siesta:   1098    1.743004    0.281644    0.612943
siesta:   1099   -1.434585    0.842603   -0.669681
siesta:   1100    0.017238    0.074943   -0.568166
siesta:   1101    0.220103   -0.498328    0.277017
siesta:   1102    0.172712    0.455442    0.557729
siesta:   1103   -0.177194    0.990840   -0.472148
siesta:   1104   -0.021780   -0.996303   -1.845484
siesta:   1105    0.121461   -0.749636    1.690342
siesta:   1106    0.085447    0.768828    0.026015
siesta:   1107   -0.163846    0.028894    0.183692
siesta:   1108    0.180212    0.395628    0.260472
siesta:   1109    0.018390   -0.003598    0.739079
siesta:   1110    0.445850    0.383512   -1.014033
siesta:   1111   -0.687938   -1.393037   -0.172231
siesta:   1112    0.005050    0.513759    0.780722
siesta:   1113    0.407866    0.774776   -0.052074
siesta:   1114   -0.306696   -0.092443   -1.026312
siesta:   1115    0.384213    0.330880   -0.534010
siesta:   1116   -1.402999   -1.518904   -0.844700
siesta:   1117    0.644104   -0.002013    1.711627
siesta:   1118   -0.336953   -0.651067   -0.348632
siesta:   1119   -0.304368   -0.190264    0.815288
siesta:   1120    0.524661    0.963135    0.028111
siesta:   1121   -0.345876   -0.487813    0.276741
siesta:   1122   -0.310101    1.443712    0.423132
siesta:   1123    0.886941   -0.324819   -1.873232
siesta:   1124    0.105470    0.637445    0.426898
siesta:   1125    0.134504   -1.031736   -0.376678
siesta:   1126   -0.422426   -0.202541    1.028229
siesta:   1127    0.260289    0.137858    0.820707
siesta:   1128    0.666926    1.175834   -0.741959
siesta:   1129   -0.829901   -1.677269   -0.710771
siesta:   1130   -0.210874    0.378018    0.393426
siesta:   1131    0.449047    0.692528    0.545123
siesta:   1132   -0.071408    0.371759   -0.322482
siesta:   1133    0.153937    0.323107   -0.693512
siesta:   1134   -0.786192   -0.426162   -1.208716
siesta:   1135    0.634882   -1.416507    1.278207
siesta:   1136    0.226321   -0.168115    0.085533
siesta:   1137   -0.052663   -0.428916    0.410080
siesta:   1138    0.337353    0.599537    0.359186
siesta:   1139   -0.051119   -1.232027   -0.746567
siesta:   1140   -0.360747    1.201173    0.998896
siesta:   1141    0.055384    0.251996   -1.498612
siesta:   1142    0.417186   -0.439624   -0.063614
siesta:   1143   -0.004191   -0.357903    0.527552
siesta:   1144   -0.653142    0.878652   -0.221457
siesta:   1145    0.433266    1.075665   -0.546314
siesta:   1146    1.449595   -1.019557    0.034760
siesta:   1147   -1.968188   -0.210683    0.885825
siesta:   1148    0.126098    0.845692    0.283851
siesta:   1149    0.368930    0.236130   -0.398459
siesta:   1150   -0.107900   -1.141994   -0.360013
siesta:   1151   -0.743589   -0.643947    0.784199
siesta:   1152    0.055081    1.464153    0.671750
siesta:   1153    0.786765    0.078863   -1.839948
siesta:   1154    0.484744    0.592226    0.428042
siesta:   1155   -0.234552   -1.048944    0.163019
siesta:   1156   -0.235238    0.092628    0.468462
siesta:   1157    1.256883    1.057615   -0.702852
siesta:   1158    0.046414   -1.484631   -1.049922
siesta:   1159   -1.678368   -0.159654    1.090560
siesta:   1160    0.896461    0.304268   -0.121703
siesta:   1161   -0.498390    0.194279    0.041389
siesta:   1162    0.289636    0.500392    0.432475
siesta:   1163    0.274928    0.479405    0.824230
siesta:   1164    1.245240   -1.092385   -0.125041
siesta:   1165   -1.151334   -0.572809   -0.783783
siesta:   1166    0.869061    0.377363    1.207270
siesta:   1167    0.518039   -0.355784   -0.487796
siesta:   1168   -0.719520    0.566136   -0.496161
siesta:   1169    0.877759   -1.255353   -0.350934
siesta:   1170    0.440425    0.983602   -1.395265
siesta:   1171   -1.347145    0.412723    1.681667
siesta:   1172   -0.341677    0.095045   -0.753079
siesta:   1173   -0.099379    0.536076    0.637866
siesta:   1174    0.153643   -0.619984    0.508312
siesta:   1175   -0.178078    1.349340   -0.146733
siesta:   1176    0.830389   -0.505372    1.241816
siesta:   1177    0.083391   -1.393832   -1.722237
siesta:   1178   -0.671726   -0.315768   -0.161589
siesta:   1179   -0.804014    0.258020   -0.662495
siesta:   1180   -0.116406    0.511784    0.538790
siesta:   1181   -0.752922   -0.563388   -0.832611
siesta:   1182    0.957074    1.245156    1.062171
siesta:   1183    0.890697   -1.524097   -0.145776
siesta:   1184   -0.073895   -1.037307   -0.028177
siesta:   1185   -0.568817    0.840923   -0.289098
siesta:   1186    0.834798    0.169305    0.199647
siesta:   1187    0.305964   -0.759711    0.519599
siesta:   1188   -2.227573   -0.390801    0.051101
siesta:   1189    0.807739    1.464046   -0.947761
siesta:   1190    0.039168   -0.605541    0.733780
siesta:   1191    0.578764   -0.260847    0.256774
siesta:   1192    0.071571    0.015436    0.159016
siesta:   1193   -0.258581   -0.540811    1.307702
siesta:   1194   -2.135971    0.074528   -0.854328
siesta:   1195    1.626985    1.118691   -0.904725
siesta:   1196    0.352794   -0.629122    0.174652
siesta:   1197   -0.159808    0.068510   -0.444265
siesta:   1198    0.574737   -0.034550   -0.170690
siesta:   1199    0.388864    0.448707   -1.587997
siesta:   1200    1.361721    0.423763    1.863754
siesta:   1201   -1.526344   -0.375557    0.455056
siesta:   1202    0.283747   -0.125041   -0.315802
siesta:   1203   -0.025336   -0.258591    0.634325
siesta:   1204   -0.828417   -0.378472   -0.659765
siesta:   1205   -0.823854   -0.517195   -0.124133
siesta:   1206   -0.424479    1.119211   -2.198962
siesta:   1207    1.592092    0.345710    1.589560
siesta:   1208   -0.688744   -0.534185    0.137238
siesta:   1209    0.915282    0.053390    0.141573
siesta:   1210    0.002653   -0.497420    0.473640
siesta:   1211    0.588797   -0.132607    0.271323
siesta:   1212   -1.985921    0.044630    0.087475
siesta:   1213    0.669689    1.143544   -1.389386
siesta:   1214   -0.256424    0.157214    0.630427
siesta:   1215    0.438522   -0.213852   -0.017589
siesta:   1216   -0.388129   -0.475180    0.399971
siesta:   1217   -0.261658    0.725711   -0.047181
siesta:   1218    1.291914    0.377839   -0.516399
siesta:   1219    0.209506   -1.193030    0.431140
siesta:   1220   -0.157594   -0.059800    0.207669
siesta:   1221   -0.615577    0.201664    0.040881
siesta:   1222    0.237385    0.525642   -0.307582
siesta:   1223    0.985133   -1.053716    0.513339
siesta:   1224   -1.496019   -0.492318    0.598886
siesta:   1225   -0.262917    1.096564   -1.551431
siesta:   1226   -0.044297    0.480786    0.296027
siesta:   1227    0.626545   -0.182996   -0.266104
siesta:   1228   -0.050757   -0.460983    0.736916
siesta:   1229   -1.215520    0.413749    0.915548
siesta:   1230    0.502512    0.749356   -1.273661
siesta:   1231    0.412228   -0.972244    0.397455
siesta:   1232   -0.368255    0.616390    0.518525
siesta:   1233   -0.264588    0.849718   -0.440944
siesta:   1234    0.070622   -0.446480   -0.834093
siesta:   1235   -0.020889    0.416366   -0.175615
siesta:   1236   -0.070158   -1.715657   -0.494256
siesta:   1237    0.588223   -0.121992    1.915201
siesta:   1238   -0.024656   -0.545781   -1.088444
siesta:   1239    0.013692    1.174315    0.634956
siesta:   1240   -0.202490    0.266827   -0.771802
siesta:   1241    0.554652   -0.670904   -1.083122
siesta:   1242    0.720679   -0.814241    2.129165
siesta:   1243   -1.413813    1.627863   -0.278847
siesta:   1244   -0.195846    0.632858   -0.684989
siesta:   1245    0.806745   -0.513832   -0.778570
siesta:   1246   -0.073911   -0.871107    0.928411
siesta:   1247    1.506618    0.354630    1.409800
siesta:   1248    0.016996    1.191357   -1.213828
siesta:   1249   -0.276399   -1.230596   -0.316943
siesta:   1250   -1.099315    0.378744    0.523057
siesta:   1251    0.069523    0.172932   -0.280993
siesta:   1252   -0.577399   -0.356629    0.062775
siesta:   1253   -0.076733   -0.075813    0.343613
siesta:   1254   -0.555856   -0.086311    0.497617
siesta:   1255    0.155133    0.310867    0.413715
siesta:   1256    0.332509   -0.231455    0.472845
siesta:   1257   -0.314616    0.161960    0.505003
siesta:   1258    0.023413    0.607810    0.638008
siesta:   1259    0.324683    1.103080   -0.152034
siesta:   1260    0.319966   -0.264399    0.617552
siesta:   1261   -0.413602   -0.182680    0.566872
siesta:   1262   -0.658738   -0.100147    0.437962
siesta:   1263    0.228768   -0.129434    0.047134
siesta:   1264   -0.414367    0.189068   -0.794376
siesta:   1265   -0.224391    0.054003   -0.819209
siesta:   1266    0.194545    0.150023   -0.561198
siesta:   1267    0.436370   -1.088044   -0.396136
siesta:   1268    0.570001    0.853174   -0.374233
siesta:   1269   -1.020663    0.197786    0.466461
siesta:   1270   -0.000404    0.033206    0.280091
siesta:   1271    0.037614    0.238837    0.128691
siesta:   1272   -0.069858    0.089715   -0.021676
siesta:   1273    0.103743   -0.302514   -0.079383
siesta:   1274    0.145789   -0.145049    0.303595
siesta:   1275    0.329826   -0.082322    0.211378
siesta:   1276   -0.080404    0.063271    0.001316
siesta:   1277    0.004138    0.177646   -0.129135
siesta:   1278    0.290915    0.461228   -0.532813
siesta:   1279    0.103188    0.004874   -0.029572
siesta:   1280   -0.149032   -0.025404   -0.332345
siesta:   1281   -0.403181   -0.748954   -0.636918
siesta:   1282    0.206633   -0.175563   -0.349078
siesta: ----------------------------------------
siesta:    Tot   -0.024174   -0.068325   -0.047904

siesta: Stress tensor (static) (eV/Ang**3):
siesta:    -0.039866   -0.001437    0.004924
siesta:    -0.001437   -0.032812   -0.000257
siesta:     0.004924   -0.000257   -0.041651

siesta: Cell volume =      13041.289483 Ang**3

siesta: Pressure (static):
siesta:                Solid            Molecule  Units
siesta:           0.00041506          0.00038640  Ry/Bohr**3
siesta:           0.03810959          0.03547764  eV/Ang**3
siesta:          61.05895242         56.84205619  kBar
(Free)E+ p_basis*V_orbitals  =     -374501.449514
(Free)Eharris+ p_basis*V_orbitals  =     -374501.469708

Optical: Performing optical calculation: 

Optical: Polarization type       = polarized   
Optical: Minimum of energy range =   0.0001 Ry 
Optical: Maximum of energy range =   7.3498 Ry 
Optical: Gaussian broadening     =   0.0037 Ry 
Optical: Scissor operator        =   0.0000 Ry 
Optical: Number of bands         =    13386
Optical: Number of electrons     =     5346
Optical: BZ mesh dimensions      =    1   1   1

Optical: electric field direction
Optical:      0.00000     0.00000     1.00000

Optical: Checking f-sum rule  0.885438
Optical: For insulators and closed shell systems
Optical: this number should be close to 1 if an enough
Optical: number of unoccupied bands have been included

* Maximum dynamic memory allocated : Node    0 =   418 MB
* Maximum dynamic memory allocated : Node    1 =   422 MB
* Maximum dynamic memory allocated : Node    2 =   424 MB
* Maximum dynamic memory allocated : Node    3 =   418 MB
* Maximum dynamic memory allocated : Node    4 =   420 MB
* Maximum dynamic memory allocated : Node    5 =   422 MB
* Maximum dynamic memory allocated : Node    6 =   418 MB
* Maximum dynamic memory allocated : Node    7 =   423 MB
* Maximum dynamic memory allocated : Node    8 =   419 MB
* Maximum dynamic memory allocated : Node    9 =   423 MB
* Maximum dynamic memory allocated : Node   10 =   424 MB
* Maximum dynamic memory allocated : Node   11 =   422 MB
* Maximum dynamic memory allocated : Node   12 =   421 MB
* Maximum dynamic memory allocated : Node   13 =   423 MB
* Maximum dynamic memory allocated : Node   14 =   418 MB
* Maximum dynamic memory allocated : Node   15 =   418 MB
* Maximum dynamic memory allocated : Node   16 =   422 MB
* Maximum dynamic memory allocated : Node   17 =   421 MB
* Maximum dynamic memory allocated : Node   18 =   421 MB
* Maximum dynamic memory allocated : Node   19 =   425 MB
* Maximum dynamic memory allocated : Node   20 =   423 MB
* Maximum dynamic memory allocated : Node   21 =   424 MB
* Maximum dynamic memory allocated : Node   22 =   420 MB
* Maximum dynamic memory allocated : Node   23 =   420 MB
* Maximum dynamic memory allocated : Node   24 =   422 MB
* Maximum dynamic memory allocated : Node   25 =   420 MB
* Maximum dynamic memory allocated : Node   26 =   417 MB
* Maximum dynamic memory allocated : Node   27 =   422 MB
* Maximum dynamic memory allocated : Node   28 =   422 MB
* Maximum dynamic memory allocated : Node   29 =   422 MB
* Maximum dynamic memory allocated : Node   30 =   425 MB
* Maximum dynamic memory allocated : Node   31 =   421 MB
* Maximum dynamic memory allocated : Node   32 =   424 MB
* Maximum dynamic memory allocated : Node   33 =   418 MB
* Maximum dynamic memory allocated : Node   34 =   412 MB
* Maximum dynamic memory allocated : Node   35 =   418 MB
* Maximum dynamic memory allocated : Node   36 =   419 MB
* Maximum dynamic memory allocated : Node   37 =   416 MB
* Maximum dynamic memory allocated : Node   38 =   422 MB
* Maximum dynamic memory allocated : Node   39 =   421 MB
* Maximum dynamic memory allocated : Node   40 =   425 MB
* Maximum dynamic memory allocated : Node   41 =   420 MB
* Maximum dynamic memory allocated : Node   42 =   419 MB
* Maximum dynamic memory allocated : Node   43 =   420 MB
* Maximum dynamic memory allocated : Node   44 =   420 MB
* Maximum dynamic memory allocated : Node   45 =   417 MB
* Maximum dynamic memory allocated : Node   46 =   403 MB
* Maximum dynamic memory allocated : Node   47 =   402 MB
* Maximum dynamic memory allocated : Node   48 =   405 MB
* Maximum dynamic memory allocated : Node   49 =   404 MB
* Maximum dynamic memory allocated : Node   50 =   406 MB
* Maximum dynamic memory allocated : Node   51 =   403 MB
* Maximum dynamic memory allocated : Node   52 =   405 MB
* Maximum dynamic memory allocated : Node   53 =   404 MB
* Maximum dynamic memory allocated : Node   54 =   400 MB
* Maximum dynamic memory allocated : Node   55 =   403 MB
* Maximum dynamic memory allocated : Node   56 =   405 MB
* Maximum dynamic memory allocated : Node   57 =   403 MB
* Maximum dynamic memory allocated : Node   58 =   407 MB
* Maximum dynamic memory allocated : Node   59 =   399 MB
* Maximum dynamic memory allocated : Node   60 =   405 MB
* Maximum dynamic memory allocated : Node   61 =   405 MB
* Maximum dynamic memory allocated : Node   62 =   405 MB
* Maximum dynamic memory allocated : Node   63 =   408 MB

* Maximum memory occured during rdiag                         

timer: CPU execution times:
timer:  Routine       Calls   Time/call    Tot.time        %
timer:  siesta            146586638.43746586638.437   100.00
timer:  Setup             1     121.957     121.957     0.00
timer:  bands             1       0.011       0.011     0.00
timer:  writewave         1       0.058       0.058     0.00
timer:  KSV_init          1       0.010       0.010     0.00
timer:  IterMD            1  382877.235  382877.235     0.82
timer:  hsparse           1      98.824      98.824     0.00
timer:  overlap           1     139.493     139.493     0.00
timer:  IterSCF          23   16195.199  372489.575     0.80
timer:  kinefsm           2      78.038     156.077     0.00
timer:  nlefsm            2     628.850    1257.701     0.00
timer:  DHSCF            24    6323.609  151766.623     0.33
timer:  DHSCF1            1      76.106      76.106     0.00
timer:  DHSCF2            1    4499.758    4499.758     0.01
timer:  REORD           146       0.117      17.148     0.00
timer:  POISON           25      39.034     975.852     0.00
timer:  DHSCF3           24    6009.511  144228.266     0.31
timer:  rhoofd           24    2709.488   65027.703     0.14
timer:  cellXC           24      85.157    2043.758     0.00
timer:  vmat             24    2912.442   69898.607     0.15
timer:  MolMec            2       0.160       0.319     0.00
timer:  diagon           23    9783.165  225012.788     0.48
timer:  r-eigvec         23    8529.858  196186.726     0.42
timer:  r-buildHS        23       2.206      50.735     0.00
timer:  rdiag            24    8561.828  205483.879     0.44
timer:  rdiag1           24     263.262    6318.282     0.01
timer:  rdiag2           24    1697.010   40728.230     0.09
timer:  rdiag3           24    5935.922  142462.137     0.31
timer:  rdiag4           24     616.911   14805.859     0.03
timer:  r-buildD         23    1252.489   28807.245     0.06
timer:  DHSCF4            1    2953.128    2953.128     0.01
timer:  dfscf             1    2732.861    2732.861     0.01
timer:  overfsm           1      18.657      18.657     0.00
timer:  optical           146203539.64546203539.645    99.18
timer:  phirphiopt        1    2161.737    2161.737     0.00
timer:  transrate         146191631.75546191631.755    99.15
  

elaps: ELAPSED times:
elaps:  Routine       Calls   Time/call    Tot.time        %
elaps:  siesta            1   85563.977   85563.977   100.00
elaps:  Setup             1       1.927       1.927     0.00
elaps:  bands             1       0.000       0.000     0.00
elaps:  writewave         1       0.001       0.001     0.00
elaps:  KSV_init          1       0.000       0.000     0.00
elaps:  IterMD            1    6012.130    6012.130     7.03
elaps:  hsparse           1       1.567       1.567     0.00
elaps:  overlap           1       1.938       1.938     0.00
elaps:  IterSCF          23     254.331    5849.607     6.84
elaps:  kinefsm           2       1.105       2.209     0.00
elaps:  nlefsm            2       9.965      19.930     0.02
elaps:  DHSCF            24      98.995    2375.875     2.78
elaps:  DHSCF1            1       1.164       1.164     0.00
elaps:  DHSCF2            1      70.649      70.649     0.08
elaps:  REORD           146       0.002       0.232     0.00
elaps:  POISON           25       0.646      16.159     0.02
elaps:  DHSCF3           24      94.215    2261.169     2.64
elaps:  rhoofd           24      38.900     933.611     1.09
elaps:  cellXC           24       1.338      32.122     0.04
elaps:  vmat             24      45.677    1096.254     1.28
elaps:  MolMec            2       0.003       0.005     0.00
elaps:  diagon           23     153.794    3537.261     4.13
elaps:  r-eigvec         23     134.141    3085.247     3.61
elaps:  r-buildHS        23       0.025       0.585     0.00
elaps:  rdiag            24     134.693    3232.623     3.78
elaps:  rdiag1           24       4.163      99.923     0.12
elaps:  rdiag2           24      26.788     642.906     0.75
elaps:  rdiag3           24      93.228    2237.472     2.61
elaps:  rdiag4           24       9.681     232.349     0.27
elaps:  r-buildD         23      19.642     451.765     0.53
elaps:  DHSCF4            1      42.773      42.773     0.05
elaps:  dfscf             1      39.645      39.645     0.05
elaps:  overfsm           1       0.289       0.289     0.00
elaps:  optical           1   79548.759   79548.759    92.97
elaps:  phirphiopt        1      33.712      33.712     0.04
elaps:  transrate         1   79360.187   79360.187    92.75
  
>> End of run:  10-SEP-2014  12:16:22
