Siesta Version:                                        siesta-3.2-pl-3
Architecture  : x86_64-unknown-linux-gnu--Intel
Compiler flags: mpif90 -O3 -xSSSE3 -axSSE4.2,SSE4.1 -ip
PARALLEL version
NetCDF support

* Running on   64 nodes in parallel
>> Start of run:  22-OCT-2014   5:47:07

                           ***********************       
                           *  WELCOME TO SIESTA  *       
                           ***********************       

reinit: Reading from standard input
************************** Dump of input data file ****************************
SystemName      optical
SystemLabel     optical
NumberOfAtoms   1282
NumberOfSpecies 4
MD.TypeOfRun    CG
MD.NumCGsteps   0
MD.ConstantVolume  .true.
SolutionMethod  diagon
XC.functional   GGA
XC.authors      PBE
PAO.BasisSize   DZP
DM.NumberPulay  7
DM.MixingWeight 0.1
DirectPhi       .true.
SaveMemory      .true.
MeshCutoff      500 Ry
MaxSCFiterations 200
UseSaveData     .true.
WriteMullikenPop 1
OpticalCalculation      .true.
%block Optical.Mesh
 1 1 1
%endblock Optical.Mesh
Optical.PolarizationType  polarized
%block Optical.Vector
 1.0 0.0 0.0
%endblock Optical.Vector
Optical.Broaden         0.05 eV
Optical.EnergyMinimum   0.001 eV
Optical.EnergyMaximum   100.0 eV
%block ChemicalSpeciesLabel
 1   1   H
 2   6   C
 3   9   F
 4  47   Ag
%endblock ChemicalSpeciesLabel
LatticeConstant 1.0 Ang
%block LatticeParameters
  22.534   24.472   23.649   90.0 90.0 90.0
%endblock LatticeParameters
AtomicCoordinatesFormat Ang
%block AtomicCoordinatesAndAtomicSpecies < struct.coor
%endblock AtomicCoordinatesAndAtomicSpecies
************************** End of input data file *****************************

reinit: -----------------------------------------------------------------------
reinit: System Name: optical
reinit: -----------------------------------------------------------------------
reinit: System Label: optical                                                     
reinit: -----------------------------------------------------------------------

initatom: Reading input for the pseudopotentials and atomic orbitals ----------
 Species number:            1  Label: H Atomic number:           1
 Species number:            2  Label: C Atomic number:           6
 Species number:            3  Label: F Atomic number:           9
 Species number:            4  Label: Ag Atomic number:          47
Ground state valence configuration:   1s01
Reading pseudopotential information in formatted form from H.psf

Valence configuration for pseudopotential generation:
1s( 1.00) rc: 1.33
2p( 0.00) rc: 1.33
3d( 0.00) rc: 0.37
4f( 0.00) rc: 1.33
Ground state valence configuration:   2s02  2p02
Reading pseudopotential information in formatted form from C.psf

Valence configuration for pseudopotential generation:
2s( 2.00) rc: 1.56
2p( 2.00) rc: 1.56
3d( 0.00) rc: 1.56
4f( 0.00) rc: 1.56
Ground state valence configuration:   2s02  2p05
Reading pseudopotential information in formatted form from F.psf

Valence configuration for pseudopotential generation:
2s( 2.00) rc: 1.41
2p( 5.00) rc: 1.41
3d( 0.00) rc: 1.41
4f( 0.00) rc: 1.41
Ground state valence configuration:   5s01  4d10
Reading pseudopotential information in formatted form from Ag.psf

Valence configuration for pseudopotential generation:
5s( 1.00) rc: 2.52
5p( 0.00) rc: 2.72
4d(10.00) rc: 2.52
4f( 0.00) rc: 2.52
For H, standard SIESTA heuristics set lmxkb to 2
 (one more than the basis l, including polarization orbitals).
Use PS.lmax or PS.KBprojectors blocks to override.
For C, standard SIESTA heuristics set lmxkb to 3
 (one more than the basis l, including polarization orbitals).
Use PS.lmax or PS.KBprojectors blocks to override.
For F, standard SIESTA heuristics set lmxkb to 3
 (one more than the basis l, including polarization orbitals).
Use PS.lmax or PS.KBprojectors blocks to override.
For Ag, standard SIESTA heuristics set lmxkb to 3
 (one more than the basis l, including polarization orbitals).
Use PS.lmax or PS.KBprojectors blocks to override.

<basis_specs>
===============================================================================
H                    Z=   1    Mass=  1.0100        Charge= 0.17977+309
Lmxo=0 Lmxkb= 2    BasisType=split      Semic=F
L=0  Nsemic=0  Cnfigmx=1
          n=1  nzeta=2  polorb=1
            splnorm:   0.15000    
               vcte:    0.0000    
               rinn:    0.0000    
                rcs:    0.0000      0.0000    
            lambdas:   1.00000     1.00000    
-------------------------------------------------------------------------------
L=0  Nkbl=1  erefs: 0.17977+309
L=1  Nkbl=1  erefs: 0.17977+309
L=2  Nkbl=1  erefs: 0.17977+309
===============================================================================
</basis_specs>

atom: Called for H                     (Z =   1)

read_vps: Pseudopotential generation method:
read_vps: ATM 3.2.2 Troullier-Martins                       
Total valence charge:    1.00000

xc_check: Exchange-correlation functional:
xc_check: GGA Perdew, Burke & Ernzerhof 1996
V l=0 = -2*Zval/r beyond r=  1.2656
V l=1 = -2*Zval/r beyond r=  1.2498
V l=2 = -2*Zval/r beyond r=  0.3563
All V_l potentials equal beyond r=  1.2656
This should be close to max(r_c) in ps generation
All pots = -2*Zval/r beyond r=  1.2656

VLOCAL1: 99.0% of the norm of Vloc inside     27.100 Ry
VLOCAL1: 99.9% of the norm of Vloc inside     61.762 Ry
atom: Maximum radius for 4*pi*r*r*local-pseudopot. charge    1.48935
atom: Maximum radius for r*vlocal+2*Zval:    1.24984
GHOST: No ghost state for L =  0
GHOST: No ghost state for L =  1
GHOST: No ghost state for L =  2

KBgen: Kleinman-Bylander projectors: 
   l= 0   rc=  1.398961   el= -0.477209   Ekb= -2.001853   kbcos= -0.352188
   l= 1   rc=  1.470814   el=  0.001006   Ekb= -0.423408   kbcos= -0.024395
   l= 2   rc=  1.489346   el=  0.001895   Ekb= -0.481957   kbcos= -0.001574

KBgen: Total number of  Kleinman-Bylander projectors:    9
atom: -------------------------------------------------------------------------

atom: SANKEY-TYPE ORBITALS:
atom: Selected multiple-zeta basis: split     

SPLIT: Orbitals with angular momentum L= 0

SPLIT: Basis orbitals for state 1s

SPLIT: PAO cut-off radius determined from an
SPLIT: energy shift=  0.020000 Ry

   izeta = 1
                 lambda =    1.000000
                     rc =    4.708991
                 energy =   -0.457764
                kinetic =    0.979534
    potential(screened) =   -1.437298
       potential(ionic) =   -1.965615

   izeta = 2
                 rmatch =    3.759707
              splitnorm =    0.150000
                 energy =   -0.339003
                kinetic =    1.582546
    potential(screened) =   -1.921548
       potential(ionic) =   -2.471878

POLgen: Perturbative polarization orbital with L=  1

POLgen: Polarization orbital for state 1s

   izeta = 1
                     rc =    4.708991
                 energy =    0.764951
                kinetic =    1.476882
    potential(screened) =   -0.711931
       potential(ionic) =   -1.204335
atom: Total number of Sankey-type orbitals:  5

atm_pop: Valence configuration (for local Pseudopot. screening):
 1s( 1.00)                                                            
Vna: chval, zval:    1.00000   1.00000

Vna:  Cut-off radius for the neutral-atom potential:   4.708991

atom: _________________________________________________________________________

<basis_specs>
===============================================================================
C                    Z=   6    Mass=  12.010        Charge= 0.17977+309
Lmxo=1 Lmxkb= 3    BasisType=split      Semic=F
L=0  Nsemic=0  Cnfigmx=2
          n=1  nzeta=2  polorb=0
            splnorm:   0.15000    
               vcte:    0.0000    
               rinn:    0.0000    
                rcs:    0.0000      0.0000    
            lambdas:   1.00000     1.00000    
L=1  Nsemic=0  Cnfigmx=2
          n=1  nzeta=2  polorb=1
            splnorm:   0.15000    
               vcte:    0.0000    
               rinn:    0.0000    
                rcs:    0.0000      0.0000    
            lambdas:   1.00000     1.00000    
-------------------------------------------------------------------------------
L=0  Nkbl=1  erefs: 0.17977+309
L=1  Nkbl=1  erefs: 0.17977+309
L=2  Nkbl=1  erefs: 0.17977+309
L=3  Nkbl=1  erefs: 0.17977+309
===============================================================================
</basis_specs>

atom: Called for C                     (Z =   6)

read_vps: Pseudopotential generation method:
read_vps: ATM 3.2.2 Troullier-Martins                       
Total valence charge:    4.00000

xc_check: Exchange-correlation functional:
xc_check: GGA Perdew, Burke & Ernzerhof 1996
V l=0 = -2*Zval/r beyond r=  1.5227
V l=1 = -2*Zval/r beyond r=  1.5227
V l=2 = -2*Zval/r beyond r=  1.5227
V l=3 = -2*Zval/r beyond r=  1.5227
All V_l potentials equal beyond r=  1.4851
This should be close to max(r_c) in ps generation
All pots = -2*Zval/r beyond r=  1.5227

VLOCAL1: 99.0% of the norm of Vloc inside     19.682 Ry
VLOCAL1: 99.9% of the norm of Vloc inside     44.856 Ry
atom: Maximum radius for 4*pi*r*r*local-pseudopot. charge    1.79142
atom: Maximum radius for r*vlocal+2*Zval:    1.54183
GHOST: No ghost state for L =  0
GHOST: No ghost state for L =  1
GHOST: No ghost state for L =  2
GHOST: No ghost state for L =  3

KBgen: Kleinman-Bylander projectors: 
   l= 0   rc=  1.661951   el= -1.010689   Ekb=  5.289847   kbcos=  0.316429
   l= 1   rc=  1.661951   el= -0.388490   Ekb= -4.102504   kbcos= -0.351025
   l= 2   rc=  1.747182   el=  0.001971   Ekb= -1.006005   kbcos= -0.008530
   l= 3   rc=  1.791422   el=  0.003065   Ekb= -0.421399   kbcos= -0.001072

KBgen: Total number of  Kleinman-Bylander projectors:   16
atom: -------------------------------------------------------------------------

atom: SANKEY-TYPE ORBITALS:
atom: Selected multiple-zeta basis: split     

SPLIT: Orbitals with angular momentum L= 0

SPLIT: Basis orbitals for state 2s

SPLIT: PAO cut-off radius determined from an
SPLIT: energy shift=  0.020000 Ry

   izeta = 1
                 lambda =    1.000000
                     rc =    4.088342
                 energy =   -0.990050
                kinetic =    0.909804
    potential(screened) =   -1.899854
       potential(ionic) =   -5.513925

   izeta = 2
                 rmatch =    3.347176
              splitnorm =    0.150000
                 energy =   -0.836186
                kinetic =    1.375045
    potential(screened) =   -2.211230
       potential(ionic) =   -6.057915

SPLIT: Orbitals with angular momentum L= 1

SPLIT: Basis orbitals for state 2p

SPLIT: PAO cut-off radius determined from an
SPLIT: energy shift=  0.020000 Ry

   izeta = 1
                 lambda =    1.000000
                     rc =    4.870301
                 energy =   -0.368677
                kinetic =    2.532104
    potential(screened) =   -2.900781
       potential(ionic) =   -6.401132

   izeta = 2
                 rmatch =    3.475094
              splitnorm =    0.150000
                 energy =   -0.205777
                kinetic =    3.787472
    potential(screened) =   -3.993249
       potential(ionic) =   -7.860448

POLgen: Perturbative polarization orbital with L=  2

POLgen: Polarization orbital for state 2p

   izeta = 1
                     rc =    4.870301
                 energy =    1.296521
                kinetic =    2.641128
    potential(screened) =   -1.344607
       potential(ionic) =   -4.300412
atom: Total number of Sankey-type orbitals: 13

atm_pop: Valence configuration (for local Pseudopot. screening):
 2s( 2.00)                                                            
 2p( 2.00)                                                            
Vna: chval, zval:    4.00000   4.00000

Vna:  Cut-off radius for the neutral-atom potential:   4.870301

atom: _________________________________________________________________________

<basis_specs>
===============================================================================
F                    Z=   9    Mass=  19.000        Charge= 0.17977+309
Lmxo=1 Lmxkb= 3    BasisType=split      Semic=F
L=0  Nsemic=0  Cnfigmx=2
          n=1  nzeta=2  polorb=0
            splnorm:   0.15000    
               vcte:    0.0000    
               rinn:    0.0000    
                rcs:    0.0000      0.0000    
            lambdas:   1.00000     1.00000    
L=1  Nsemic=0  Cnfigmx=2
          n=1  nzeta=2  polorb=1
            splnorm:   0.15000    
               vcte:    0.0000    
               rinn:    0.0000    
                rcs:    0.0000      0.0000    
            lambdas:   1.00000     1.00000    
-------------------------------------------------------------------------------
L=0  Nkbl=1  erefs: 0.17977+309
L=1  Nkbl=1  erefs: 0.17977+309
L=2  Nkbl=1  erefs: 0.17977+309
L=3  Nkbl=1  erefs: 0.17977+309
===============================================================================
</basis_specs>

atom: Called for F                     (Z =   9)

read_vps: Pseudopotential generation method:
read_vps: ATM 3.2.2 Troullier-Martins                       
Total valence charge:    7.00000

xc_check: Exchange-correlation functional:
xc_check: GGA Perdew, Burke & Ernzerhof 1996
V l=0 = -2*Zval/r beyond r=  1.3199
V l=1 = -2*Zval/r beyond r=  1.3199
V l=2 = -2*Zval/r beyond r=  1.3199
V l=3 = -2*Zval/r beyond r=  1.3199
All V_l potentials equal beyond r=  1.3199
This should be close to max(r_c) in ps generation
All pots = -2*Zval/r beyond r=  1.3199

VLOCAL1: 99.0% of the norm of Vloc inside     24.916 Ry
VLOCAL1: 99.9% of the norm of Vloc inside     56.784 Ry
atom: Maximum radius for 4*pi*r*r*local-pseudopot. charge    1.61221
atom: Maximum radius for r*vlocal+2*Zval:    1.38760
GHOST: No ghost state for L =  0
GHOST: No ghost state for L =  1
GHOST: No ghost state for L =  2
GHOST: No ghost state for L =  3

KBgen: Kleinman-Bylander projectors: 
   l= 0   rc=  1.495695   el= -2.197581   Ekb=  5.601452   kbcos=  0.238748
   l= 1   rc=  1.458760   el= -0.816694   Ekb= -9.171639   kbcos= -0.518972
   l= 2   rc=  1.552860   el=  0.001997   Ekb= -1.845583   kbcos= -0.004774
   l= 3   rc=  1.592177   el=  0.003102   Ekb= -0.701684   kbcos= -0.000616

KBgen: Total number of  Kleinman-Bylander projectors:   16
atom: -------------------------------------------------------------------------

atom: SANKEY-TYPE ORBITALS:
atom: Selected multiple-zeta basis: split     

SPLIT: Orbitals with angular momentum L= 0

SPLIT: Basis orbitals for state 2s

SPLIT: PAO cut-off radius determined from an
SPLIT: energy shift=  0.020000 Ry

   izeta = 1
                 lambda =    1.000000
                     rc =    3.012240
                 energy =   -2.180114
                kinetic =    2.050927
    potential(screened) =   -4.231041
       potential(ionic) =  -15.028689

   izeta = 2
                 rmatch =    2.203728
              splitnorm =    0.150000
                 energy =   -1.860487
                kinetic =    3.102500
    potential(screened) =   -4.962987
       potential(ionic) =  -16.601125

SPLIT: Orbitals with angular momentum L= 1

SPLIT: Basis orbitals for state 2p

SPLIT: PAO cut-off radius determined from an
SPLIT: energy shift=  0.020000 Ry

   izeta = 1
                 lambda =    1.000000
                     rc =    3.588372
                 energy =   -0.798309
                kinetic =    6.054328
    potential(screened) =   -6.852638
       potential(ionic) =  -17.288549

   izeta = 2
                 rmatch =    2.259523
              splitnorm =    0.150000
                 energy =   -0.439465
                kinetic =    8.943362
    potential(screened) =   -9.382827
       potential(ionic) =  -20.998650

POLgen: Perturbative polarization orbital with L=  2

POLgen: Polarization orbital for state 2p

   izeta = 1
                     rc =    3.588372
                 energy =    3.121679
                kinetic =    6.160101
    potential(screened) =   -3.038422
       potential(ionic) =  -11.529161
atom: Total number of Sankey-type orbitals: 13

atm_pop: Valence configuration (for local Pseudopot. screening):
 2s( 2.00)                                                            
 2p( 5.00)                                                            
Vna: chval, zval:    7.00000   7.00000

Vna:  Cut-off radius for the neutral-atom potential:   3.588372

atom: _________________________________________________________________________

<basis_specs>
===============================================================================
Ag                   Z=  47    Mass=  107.87        Charge= 0.17977+309
Lmxo=2 Lmxkb= 3    BasisType=split      Semic=F
L=0  Nsemic=0  Cnfigmx=5
          n=1  nzeta=2  polorb=1
            splnorm:   0.15000    
               vcte:    0.0000    
               rinn:    0.0000    
                rcs:    0.0000      0.0000    
            lambdas:   1.00000     1.00000    
L=1  Nsemic=0  Cnfigmx=5
L=2  Nsemic=0  Cnfigmx=4
          n=1  nzeta=2  polorb=0
            splnorm:   0.15000    
               vcte:    0.0000    
               rinn:    0.0000    
                rcs:    0.0000      0.0000    
            lambdas:   1.00000     1.00000    
-------------------------------------------------------------------------------
L=0  Nkbl=1  erefs: 0.17977+309
L=1  Nkbl=1  erefs: 0.17977+309
L=2  Nkbl=1  erefs: 0.17977+309
L=3  Nkbl=1  erefs: 0.17977+309
===============================================================================
</basis_specs>

atom: Called for Ag                    (Z =  47)

read_vps: Pseudopotential generation method:
read_vps: ATM 3.2.2 Troullier-Martins                       
Total valence charge:   11.00000

xc_check: Exchange-correlation functional:
xc_check: GGA Perdew, Burke & Ernzerhof 1996
V l=0 = -2*Zval/r beyond r=  2.4592
V l=1 = -2*Zval/r beyond r=  2.6507
V l=2 = -2*Zval/r beyond r=  2.4592
V l=3 = -2*Zval/r beyond r=  2.4592
All V_l potentials equal beyond r=  2.6507
This should be close to max(r_c) in ps generation
All pots = -2*Zval/r beyond r=  2.6507

VLOCAL1: 99.0% of the norm of Vloc inside      6.178 Ry
VLOCAL1: 99.9% of the norm of Vloc inside     14.079 Ry
atom: Maximum radius for 4*pi*r*r*local-pseudopot. charge    3.19739
atom: Maximum radius for r*vlocal+2*Zval:    2.82168
GHOST: No ghost state for L =  0
GHOST: No ghost state for L =  1
GHOST: No ghost state for L =  2
GHOST: No ghost state for L =  3

KBgen: Kleinman-Bylander projectors: 
   l= 0   rc=  2.966357   el= -0.323666   Ekb=  3.565490   kbcos=  0.247453
   l= 1   rc=  3.003670   el= -0.054265   Ekb=  1.619308   kbcos=  0.223076
   l= 2   rc=  2.786631   el= -0.547066   Ekb= -7.840816   kbcos= -0.714112
   l= 3   rc=  3.079709   el=  0.002953   Ekb= -2.732950   kbcos= -0.012571

KBgen: Total number of  Kleinman-Bylander projectors:   16
atom: -------------------------------------------------------------------------

atom: SANKEY-TYPE ORBITALS:
atom: Selected multiple-zeta basis: split     

SPLIT: Orbitals with angular momentum L= 0

SPLIT: Basis orbitals for state 5s

SPLIT: PAO cut-off radius determined from an
SPLIT: energy shift=  0.020000 Ry

   izeta = 1
                 lambda =    1.000000
                     rc =    6.684855
                 energy =   -0.305483
                kinetic =    0.327133
    potential(screened) =   -0.632616
       potential(ionic) =   -8.088030

   izeta = 2
                 rmatch =    6.279837
              splitnorm =    0.150000
                 energy =   -0.253539
                kinetic =    0.499634
    potential(screened) =   -0.753173
       potential(ionic) =   -8.691029

SPLIT: Orbitals with angular momentum L= 2

SPLIT: Basis orbitals for state 4d

SPLIT: PAO cut-off radius determined from an
SPLIT: energy shift=  0.020000 Ry

   izeta = 1
                 lambda =    1.000000
                     rc =    3.954440
                 energy =   -0.527442
                kinetic =    6.210364
    potential(screened) =   -6.737807
       potential(ionic) =  -18.733043

   izeta = 2
                 rmatch =    2.490121
              splitnorm =    0.150000
                 energy =   -0.148928
                kinetic =    8.576261
    potential(screened) =   -8.725189
       potential(ionic) =  -21.658221

POLgen: Perturbative polarization orbital with L=  1

POLgen: Polarization orbital for state 5s

   izeta = 1
                     rc =    6.684855
                 energy =   -0.001728
                kinetic =    0.597115
    potential(screened) =   -0.598843
       potential(ionic) =   -7.554613
atom: Total number of Sankey-type orbitals: 15

atm_pop: Valence configuration (for local Pseudopot. screening):
 5s( 1.00)                                                            
 5p( 0.00)                                                            
 4d(10.00)                                                            
Vna: chval, zval:   11.00000  11.00000

Vna:  Cut-off radius for the neutral-atom potential:   6.684855

atom: _________________________________________________________________________

prinput: Basis input ----------------------------------------------------------

PAO.BasisType split     

%block ChemicalSpeciesLabel
    1    1 H                       # Species index, atomic number, species label
    2    6 C                       # Species index, atomic number, species label
    3    9 F                       # Species index, atomic number, species label
    4   47 Ag                      # Species index, atomic number, species label
%endblock ChemicalSpeciesLabel

%block PAO.Basis                 # Define Basis set
H                     1                    # Species label, number of l-shells
 n=1   0   2 P   1                   # n, l, Nzeta, Polarization, NzetaPol
   4.709      3.760   
   1.000      1.000   
C                     2                    # Species label, number of l-shells
 n=2   0   2                         # n, l, Nzeta 
   4.088      3.347   
   1.000      1.000   
 n=2   1   2 P   1                   # n, l, Nzeta, Polarization, NzetaPol
   4.870      3.475   
   1.000      1.000   
F                     2                    # Species label, number of l-shells
 n=2   0   2                         # n, l, Nzeta 
   3.012      2.204   
   1.000      1.000   
 n=2   1   2 P   1                   # n, l, Nzeta, Polarization, NzetaPol
   3.588      2.260   
   1.000      1.000   
Ag                    2                    # Species label, number of l-shells
 n=5   0   2 P   1                   # n, l, Nzeta, Polarization, NzetaPol
   6.685      6.280   
   1.000      1.000   
 n=4   2   2                         # n, l, Nzeta 
   3.954      2.490   
   1.000      1.000   
%endblock PAO.Basis

prinput: ----------------------------------------------------------------------

Dumping basis to NetCDF file H.ion.nc
Dumping basis to NetCDF file C.ion.nc
Dumping basis to NetCDF file F.ion.nc
Dumping basis to NetCDF file Ag.ion.nc
coor:   Atomic-coordinates input format  =     Cartesian coordinates
coor:                                          (in Angstroms)

siesta: WARNING: XV file not found

siesta: Atomic coordinates (Bohr) and species
siesta:     31.65481  39.25152   2.08815  2        1
siesta:     31.85513  37.38636   2.94230  1        2
siesta:     29.75942  39.90158   2.42452  1        3
siesta:     32.98329  40.51952   3.02356  1        4
siesta:     32.15181  39.17404  43.92670  2        5
siesta:     30.46996  37.51297  42.89491  3        6
siesta:     31.42049  41.44360  42.98940  3        7
siesta:     34.80310  38.54287  42.82688  2        8
siesta:     34.57822  38.65814  40.74818  1        9
siesta:     36.09189  40.07733  43.35789  1       10
siesta:     36.16370  35.99930  43.36167  2       11
siesta:     34.55933  34.42704  44.59377  3       12
siesta:     36.50196  34.82956  41.09400  3       13
siesta:     38.74129  35.85379   0.03590  2       14
siesta:     38.90381  33.94894   0.76534  1       15
siesta:     40.17559  36.09000  43.25774  1       16
siesta:     39.43104  37.70005   2.18641  2       17
siesta:     40.02442  39.98473   1.13573  3       18
siesta:     37.30510  38.15925   3.54135  3       19
siesta:     41.51919  37.03109   4.10449  2       20
siesta:     41.52108  38.52964   5.50666  1       21
siesta:     40.91448  35.30388   5.07392  1       22
siesta:      1.68942  36.60401   3.22576  2       23
siesta:      2.91963  35.50041   5.21754  3       24
siesta:      1.64595  34.73885   1.43619  3       25
siesta:      3.33915  38.75452   2.19964  2       26
siesta:      2.32814  39.62946   0.64440  1       27
siesta:      3.49977  40.13780   3.71520  1       28
siesta:      6.07358  38.26319   1.26990  2       29
siesta:      5.98665  36.77031  43.87190  3       30
siesta:      6.98632  40.47606   0.31936  3       31
siesta:      8.15795  37.28998   3.05758  2       32
siesta:      9.86626  38.27264   2.47176  1       33
siesta:      7.68174  37.97028   4.97187  1       34
siesta:      8.79101  34.43649   3.33159  2       35
siesta:      8.88550  33.95839   5.85248  3       36
siesta:      6.77845  33.04565   2.50200  3       37
siesta:     11.21553  33.18549   2.23744  2       38
siesta:     12.69519  33.29132   3.66418  1       39
siesta:     10.81680  31.17482   1.92563  1       40
siesta:     12.39472  34.24563  44.46905  2       41
siesta:     10.43507  34.78798  42.91192  3       42
siesta:     13.52100  36.47740   0.34582  3       43
siesta:     14.29578  32.60346  42.97050  2       44
siesta:     16.18362  33.14581  43.63001  1       45
siesta:     13.95374  30.63436  43.46939  1       46
siesta:     14.39405  32.77164  40.05654  2       47
siesta:     12.18496  31.86457  39.13435  3       48
siesta:     14.33169  35.24341  39.35923  3       49
siesta:     16.52188  31.40537  38.60145  2       50
siesta:     17.31368  29.95217  39.82599  1       51
siesta:     15.60159  30.45484  37.00463  1       52
siesta:     18.78577  32.90392  37.57533  2       53
siesta:     20.22575  31.28632  36.19583  3       54
siesta:     17.88438  34.65192  35.88213  3       55
siesta:     20.54133  34.28531  39.45750  2       56
siesta:     19.50765  35.87835  40.18315  1       57
siesta:     20.89093  33.03243  41.05621  1       58
siesta:     23.16805  35.27553  38.63358  2       59
siesta:     22.81278  37.41848  37.26541  3       60
siesta:     24.32456  36.09378  40.76141  3       61
siesta:     25.11258  33.67115  37.17093  2       62
siesta:     24.34724  33.39147  35.26986  1       63
siesta:     26.81711  34.83711  36.97629  1       64
siesta:     25.95162  31.04632  38.14981  2       65
siesta:     24.58724  30.47752  40.25118  3       66
siesta:     25.17494  29.32856  36.41126  3       67
siesta:     28.69550  30.44161  38.85089  2       68
siesta:     28.92416  30.90081  40.84267  1       69
siesta:     28.90526  28.40448  38.59767  1       70
siesta:     30.89514  31.69450  37.41092  2       71
siesta:     30.12603  32.13103  34.98262  3       72
siesta:     31.37325  34.00752  38.39358  3       73
siesta:     33.50675  30.36602  37.23518  2       74
siesta:     33.40281  29.09801  35.62135  1       75
siesta:     34.85034  31.83434  36.80621  1       76
siesta:     34.56877  28.86180  39.51230  2       77
siesta:     33.84879  30.04477  41.69682  3       78
siesta:     33.30455  26.61680  39.60868  3       79
siesta:     37.41281  28.28354  39.67860  2       80
siesta:     38.04776  27.69773  37.80588  1       81
siesta:     38.35012  30.02776  40.11323  1       82
siesta:     38.41815  26.32956  41.57966  2       83
siesta:     37.87580  23.97685  40.64614  3       84
siesta:     40.97495  26.47318  41.55131  3       85
siesta:     37.53187  26.44106  44.37079  2       86
siesta:     37.49596  28.41204   0.23433  1       87
siesta:     35.62702  25.70029  44.38024  1       88
siesta:     38.95483  24.99731   1.78390  2       89
siesta:     37.34289  24.79889   3.77001  3       90
siesta:     39.29498  22.55011   0.99211  3       91
siesta:     41.54942  25.91571   2.78924  2       92
siesta:     42.38846  24.37937   3.92685  1       93
siesta:      0.19086  26.24075   1.13762  1       94
siesta:     41.69115  28.35157   4.41818  2       95
siesta:     40.58188  30.23185   3.06325  3       96
siesta:     40.19071  28.01331   6.48743  3       97
siesta:      1.67430  29.37580   5.32903  2       98
siesta:      2.35460  30.68727   3.88717  1       99
siesta:      1.31714  30.44350   7.06002  1      100
siesta:      3.84181  27.51631   5.86760  2      101
siesta:      2.83837  25.53588   7.19041  3      102
siesta:      4.56180  26.49019   3.64717  3      103
siesta:      6.21342  28.40826   7.32458  2      104
siesta:      6.57247  30.36413   6.85782  1      105
siesta:      5.72776  28.32323   9.30502  1      106
siesta:      8.74377  27.02498   7.03923  2      107
siesta:      9.74910  27.69395   4.76022  3      108
siesta:     10.35381  28.01709   8.79101  3      109
siesta:      8.90628  24.13937   7.28868  2      110
siesta:      7.54946  23.30033   5.98288  1      111
siesta:     10.76955  23.59891   6.64617  1      112
siesta:      8.43574  22.87703   9.87949  2      113
siesta:      6.71042  24.24331  11.19852  3      114
siesta:      7.22254  20.67361   9.41462  3      115
siesta:     10.65050  22.33468  11.66528  2      116
siesta:     12.09803  21.41250  10.55035  1      117
siesta:     11.38182  24.15638  12.23787  1      118
siesta:     10.28011  20.79644  14.13138  2      119
siesta:     11.92796  21.72808  15.86048  3      120
siesta:      7.99543  21.44084  15.14049  3      121
siesta:     10.51255  17.87871  14.11248  2      122
siesta:      9.40706  17.17195  15.69418  1      123
siesta:      9.58280  17.22864  12.34181  1      124
siesta:     13.12037  16.56157  14.20886  2      125
siesta:     12.73298  14.19563  13.28100  3      126
siesta:     14.60759  17.67839  12.44763  3      127
siesta:     14.61326  16.37259  16.72408  2      128
siesta:     14.75877  18.30012  17.50454  1      129
siesta:     13.52289  15.26521  18.09413  1      130
siesta:     17.32313  15.29167  16.71841  2      131
siesta:     18.86514  17.03022  15.61859  3      132
siesta:     18.09980  15.25765  19.18262  3      133
siesta:     17.86548  12.70274  15.49198  2      134
siesta:     16.24598  11.49521  15.93418  1      135
siesta:     17.89949  12.95786  13.44163  1      136
siesta:     20.24464  11.16829  16.22519  2      137
siesta:     19.90071  10.23854  18.60058  3      138
siesta:     20.28622   9.09148  14.70396  3      139
siesta:     22.89782  12.36826  16.10803  2      140
siesta:     22.96396  13.65328  14.48098  1      141
siesta:     23.11703  13.54934  17.80123  1      142
siesta:     25.28077  10.69018  15.97575  2      143
siesta:     27.32545  12.21142  16.37826  3      144
siesta:     25.22785   9.17651  18.06012  3      145
siesta:     25.91760   8.96675  13.69296  2      146
siesta:     27.82812   8.19764  14.04634  1      147
siesta:     24.63637   7.36805  13.80823  1      148
siesta:     25.80233   9.97020  10.95286  2      149
siesta:     25.44706   7.91040   9.44485  3      150
siesta:     23.60836  11.31568  10.67507  3      151
siesta:     27.97174  11.52733   9.78123  2      152
siesta:     27.48986  11.79001   7.78567  1      153
siesta:     27.91882  13.39816  10.68830  1      154
siesta:     30.72885  10.56924   9.92863  2      155
siesta:     32.21039  12.23976   8.63416  3      156
siesta:     31.50742  10.86026  12.36070  3      157
siesta:     31.46206   7.86315   9.17273  2      158
siesta:     33.39525   7.61938   9.87193  1      159
siesta:     30.29799   6.58948  10.25744  1      160
siesta:     31.42427   6.91451   6.39862  2      161
siesta:     32.01764   8.88550   4.86038  3      162
siesta:     33.46139   5.38194   6.12083  3      163
siesta:     29.12447   5.48588   5.31391  2      164
siesta:     27.48230   6.68585   5.68430  1      165
siesta:     29.34179   5.40651   3.28435  1      166
siesta:     28.41960   2.76467   6.15673  2      167
siesta:     28.40259   1.33982   4.01189  3      168
siesta:     30.36224   1.74800   7.50977  3      169
siesta:     25.90249   2.19397   7.52111  2      170
siesta:     24.62314   3.78323   7.21876  1      171
siesta:     25.08801   0.58959   6.56302  1      172
siesta:     25.84957   1.66296  10.38027  2      173
siesta:     27.46718   3.29190  11.52544  3      174
siesta:     23.54978   2.40373  11.26088  3      175
siesta:     26.41082  45.27030  11.47064  2      176
siesta:     28.45173  44.98684  11.26655  1      177
siesta:     25.96674  45.36478  13.49454  1      178
siesta:     25.08046  42.90625  10.44641  2      179
siesta:     22.69562  43.59600   9.70753  3      180
siesta:     26.31634  42.24673   8.28834  3      181
siesta:     24.83290  40.52897  12.12638  2      182
siesta:     26.70940  40.05843  12.82747  1      183
siesta:     23.69151  41.02786  13.76477  1      184
siesta:     23.66883  38.08178  11.01711  2      185
siesta:     21.66005  37.39203  12.45897  3      186
siesta:     22.60302  38.67515   8.75133  3      187
siesta:     25.32801  35.74418  10.60704  2      188
siesta:     24.04677  34.27020   9.94185  1      189
siesta:     26.61869  36.18638   9.04234  1      190
siesta:     26.91538  34.59712  12.75755  2      191
siesta:     29.30777  35.51364  12.62527  3      192
siesta:     26.08012  35.55143  15.01388  3      193
siesta:     27.07601  31.69639  12.98053  2      194
siesta:     27.11191  30.91026  11.07191  1      195
siesta:     28.85046  31.20695  13.90839  1      196
siesta:     24.98786  30.22807  14.38082  2      197
siesta:     22.79955  31.56222  14.22397  3      198
siesta:     24.49464  28.16071  12.91817  3      199
siesta:     25.31478  29.24163  17.10014  2      200
siesta:     23.51198  28.44039  17.69351  1      201
siesta:     26.66027  27.67505  17.01888  1      202
siesta:     26.22941  30.98585  19.25254  2      203
siesta:     26.85302  29.43250  21.21218  3      204
siesta:     28.49519  31.95339  18.53066  3      205
siesta:     24.64393  33.17038  20.37504  2      206
siesta:     25.26754  33.35557  22.33846  1      207
siesta:     25.19195  34.91648  19.43206  1      208
siesta:     21.71485  33.11557  20.47519  2      209
siesta:     20.90794  30.65704  20.60180  3      210
siesta:     21.06101  34.10957  22.76365  3      211
siesta:     20.15016  34.49885  18.41728  2      212
siesta:     21.43706  35.70828  17.38171  1      213
siesta:     19.48686  33.03621  17.13793  1      214
siesta:     17.82768  36.11457  19.11837  2      215
siesta:     16.47275  36.51141  16.96975  3      216
siesta:     16.27622  34.67460  20.59424  3      217
siesta:     18.15650  38.69594  20.46763  2      218
siesta:     16.42173  39.11924  21.49753  1      219
siesta:     19.66450  38.44838  21.87170  1      220
siesta:     18.82168  41.05243  18.89349  2      221
siesta:     19.72119  42.79664  20.57535  3      222
siesta:     20.86070  40.50252  17.42517  3      223
siesta:     16.79022  42.42248  17.27966  2      224
siesta:     15.47308  40.98818  16.56157  1      225
siesta:     15.76410  43.66781  18.55145  1      226
siesta:     17.57257  44.07788  14.97798  2      227
siesta:     18.28878  42.53964  13.04856  3      228
siesta:     15.46364  45.28353  14.12571  3      229
siesta:     19.67584  46.08099  15.26710  2      230
siesta:     21.35013  45.16636  16.04567  1      231
siesta:     20.09914   0.42330  13.35659  1      232
siesta:     19.21663   2.29035  16.72786  2      233
siesta:     17.81823   3.84559  15.23498  3      234
siesta:     17.69729   1.80847  18.76688  3      235
siesta:     21.49186   3.86449  17.65005  2      236
siesta:     22.89215   3.88717  16.14583  1      237
siesta:     20.81723   5.79768  17.88815  1      238
siesta:     22.90538   3.19553  20.10102  2      239
siesta:     22.83924   0.64440  20.46385  3      240
siesta:     25.38470   3.68308  19.64749  3      241
siesta:     22.28366   4.47298  22.63893  2      242
siesta:     23.49497   3.60371  24.01276  1      243
siesta:     22.85247   6.44397  22.48586  1      244
siesta:     19.58891   4.52212  23.73686  2      245
siesta:     19.58891   6.18886  25.67950  3      246
siesta:     18.02233   5.64083  22.01154  3      247
siesta:     18.30389   2.10327  24.72519  2      248
siesta:     18.92750   0.54991  23.53466  1      249
siesta:     19.03144   1.74800  26.62625  1      250
siesta:     15.38994   1.92941  24.91227  2      251
siesta:     14.54145   1.30580  22.56901  3      252
siesta:     14.75688  46.15658  26.38626  3      253
siesta:     13.76288   4.17441  25.76265  2      254
siesta:     14.98364   5.86760  25.78721  1      255
siesta:     12.33803   4.44464  24.32078  1      256
siesta:     12.36826   4.07047  28.34023  2      257
siesta:     14.05390   3.20876  30.07878  3      258
siesta:     11.90528   6.51389  29.02432  3      259
siesta:      9.88327   2.60971  28.68038  2      260
siesta:     10.18941   0.70298  27.96796  1      261
siesta:      9.57714   2.45476  30.70617  1      262
siesta:      7.40395   3.63772  27.46718  2      263
siesta:      7.95197   5.66351  25.96674  3      264
siesta:      6.56491   1.90484  25.78910  3      265
siesta:      5.11549   4.40495  29.14715  2      266
siesta:      5.83548   5.65595  30.59279  1      267
siesta:      3.87772   5.54257  27.96607  1      268
siesta:      3.44308   2.39239  30.45484  2      269
siesta:      1.91051   1.41352  28.65582  3      270
siesta:      4.94919   0.41574  31.16160  3      271
siesta:      1.72154   3.12372  32.70739  2      272
siesta:      0.37417   4.54668  32.03843  1      273
siesta:      0.67085   1.43808  33.21384  1      274
siesta:      2.81002   4.17819  35.18860  2      275
siesta:      3.42796   6.64239  34.75586  3      276
siesta:      0.85416   4.30291  36.84778  3      277
siesta:      5.02478   2.90829  36.60212  2      278
siesta:      6.56302   2.67396  35.23396  1      279
siesta:      5.69375   4.22543  37.98729  1      280
siesta:      4.64873   0.35149  37.93816  2      281
siesta:      3.48088  44.99629  36.32433  3      282
siesta:      6.99388  45.56887  38.18571  3      283
siesta:      3.30702   0.12661  40.52519  2      284
siesta:      4.82258  46.19059  41.90847  1      285
siesta:      2.35838   1.91618  40.88991  1      286
siesta:      1.45887  44.20827  41.11101  2      287
siesta:      2.76656  42.00674  41.00896  3      288
siesta:      0.87494  44.47850  43.62246  3      289
siesta:     41.55887  43.91914  39.55765  2      290
siesta:     40.05465  44.55220  40.79542  1      291
siesta:     41.65714  45.26085  37.96650  1      292
siesta:     40.68582  41.34911  38.50130  2      293
siesta:     40.27386  39.75985  40.48362  3      294
siesta:     38.31799  41.74218  37.59234  3      295
siesta:     42.16548  39.86001  36.48685  2      296
siesta:      1.51178  39.74852  37.13313  1      297
siesta:     41.37557  37.96272  36.50007  1      298
siesta:     42.21461  40.74440  33.69383  2      299
siesta:     40.31543  39.51419  32.47874  3      300
siesta:     41.54376  43.23884  33.57100  3      301
siesta:      2.09382  40.32299  32.18772  2      302
siesta:      3.30891  41.91792  32.57889  1      303
siesta:      2.98199  38.62980  32.94928  1      304
siesta:      2.07681  39.89213  29.29833  2      305
siesta:      4.51645  39.60868  28.52354  3      306
siesta:      1.06581  37.58289  28.93361  3      307
siesta:      0.79369  41.80643  27.51064  2      308
siesta:     42.35445  43.15947  28.67472  1      309
siesta:      2.35460  42.79287  26.60546  1      310
siesta:     41.59100  40.98251  25.37714  2      311
siesta:     41.45683  42.94215  23.70473  3      312
siesta:      0.22677  39.05688  24.09402  3      313
siesta:     38.85656  40.12457  25.93083  2      314
siesta:     38.06855  39.42159  24.17339  1      315
siesta:     39.00963  38.55988  27.28010  1      316
siesta:     36.90070  41.97839  27.05144  2      317
siesta:     34.73129  40.65180  27.38403  3      318
siesta:     37.62068  42.62279  29.44950  3      319
siesta:     36.17126  44.44260  25.66816  2      320
siesta:     37.91737  45.49140  25.20896  1      321
siesta:     35.25663  43.88324  23.89749  1      322
siesta:     34.39303   0.13606  26.93239  2      323
siesta:     32.38803   0.45353  25.36391  3      324
siesta:     33.29699  45.33455  28.99975  3      325
siesta:     35.31900   2.83459  27.63537  2      326
siesta:     36.29031   3.56780  25.99319  1      327
siesta:     33.64092   4.02512  27.91882  1      328
siesta:     37.06132   3.25600  29.93516  2      329
siesta:     39.28553   1.99366  29.50242  3      330
siesta:     37.71517   5.75422  29.88603  3      331
siesta:     36.19961   2.60215  32.66582  2      332
siesta:     34.15114   2.19964  32.56944  1      333
siesta:     37.14069   0.85038  33.22140  1      334
siesta:     36.59645   4.52779  34.80688  2      335
siesta:     38.97184   5.49911  34.61602  3      336
siesta:     35.03743   6.49121  34.26831  3      337
siesta:     36.22417   3.68875  37.59423  2      338
siesta:     35.10735   1.94831  37.59612  1      339
siesta:     38.08556   3.23332  38.31610  1      340
siesta:     34.99774   5.51233  39.54820  2      341
siesta:     35.60245   7.93496  38.93782  3      342
siesta:     32.42204   5.40651  39.27986  3      343
siesta:     35.54576   5.15329  42.39224  2      344
siesta:     37.32400   6.04524  42.81365  1      345
siesta:     34.03587   6.15484  43.37679  1      346
siesta:     35.72907   2.47365  43.51852  2      347
siesta:     34.30610   0.82959  42.14469  3      348
siesta:     38.14981   1.66296  43.15380  3      349
siesta:     35.13191   2.10705   1.68564  2      350
siesta:     35.92560   3.72654   2.66640  1      351
siesta:     33.05888   2.09949   1.90862  1      352
siesta:     36.13158  45.91469   3.00845  2      353
siesta:     34.64058  45.44415   5.03234  3      354
siesta:     35.62135  43.97961   1.39840  3      355
siesta:     38.90948  45.56509   3.83048  2      356
siesta:     38.91515  44.07221   5.22321  1      357
siesta:     39.93560  44.83944   2.19964  1      358
siesta:     40.49307   1.49477   4.93597  2      359
siesta:     40.78409   3.23521   3.05569  3      360
siesta:     39.08333   2.70042   6.72554  3      361
siesta:      0.59904   1.03368   5.99799  2      362
siesta:      1.83681   0.84282   4.34448  1      363
siesta:      1.15273   2.75900   7.01845  1      364
siesta:      1.05636  45.03408   7.80268  2      365
siesta:     41.57588  44.81487   9.34092  3      366
siesta:      0.96754  42.89869   6.41184  3      367
siesta:      3.43174  44.91692   9.51289  2      368
siesta:      3.41096   0.37039  10.71097  1      369
siesta:      3.16907  43.26530  10.75066  1      370
siesta:      6.11705  44.69204   8.40362  2      371
siesta:      5.98854  43.67915   6.03390  3      372
siesta:      6.88805   0.86172   7.99732  3      373
siesta:      8.18252  43.35978   9.94185  2      374
siesta:      9.97965  43.75285   9.00455  1      375
siesta:      8.29023  44.27441  11.79945  1      376
siesta:      8.05213  40.49685  10.44074  2      377
siesta:      7.45308  40.19827  12.92384  3      378
siesta:      6.05280  39.52553   9.14628  3      379
siesta:     10.33303  38.78853   9.87949  2      380
siesta:      9.68674  36.84589   9.95508  1      381
siesta:     10.91317  39.14002   7.90095  1      382
siesta:     12.73487  38.96617  11.51978  2      383
siesta:     13.19974  41.46061  11.93740  3      384
siesta:     12.18685  38.01375  13.85926  3      385
siesta:     15.30868  37.84745  10.70908  2      386
siesta:     16.11559  39.11735   9.33525  1      387
siesta:     16.53700  37.89847  12.36259  1      388
siesta:     15.41828  35.14325   9.64139  2      389
siesta:     14.28067  33.57667  11.32324  3      390
siesta:     13.96697  35.03365   7.52678  3      391
siesta:     18.01666  33.96784   8.96297  2      392
siesta:     19.18451  35.48907   8.24866  1      393
siesta:     18.84058  33.26675  10.71097  1      394
siesta:     18.28689  31.80788   7.01467  2      395
siesta:     17.80123  32.69416   4.65251  3      396
siesta:     20.78133  31.23908   6.91073  3      397
siesta:     16.90739  29.28132   7.33025  2      398
siesta:     17.79556  28.25709   8.88172  1      399
siesta:     14.97420  29.71407   7.91040  1      400
siesta:     16.72408  27.42372   5.07581  2      401
siesta:     15.21230  25.49431   5.87705  3      402
siesta:     15.37671  28.54432   3.19553  3      403
siesta:     19.12404  26.16894   3.96087  2      404
siesta:     20.70007  26.65649   5.21187  1      405
siesta:     18.82357  24.12236   4.09126  1      406
siesta:     19.99520  26.70751   1.22454  2      407
siesta:     18.03177  26.28988  44.30654  3      408
siesta:     20.55645  29.19817   0.97888  3      409
siesta:     22.29122  25.21085   0.18708  2      410
siesta:     23.24931  26.42783  43.52608  1      411
siesta:     23.59702  24.95384   1.77634  1      412
siesta:     21.91705  22.62381  43.56009  2      413
siesta:     24.13370  21.32179  43.74718  3      414
siesta:     20.28811  21.24998   0.31180  3      415
siesta:     21.00242  22.42350  40.81432  2      416
siesta:     21.35769  20.49220  40.19260  1      417
siesta:     18.94640  22.71641  40.82755  1      418
siesta:     22.10603  24.20362  38.73373  2      419
siesta:     21.25187  26.56578  39.20994  3      420
siesta:     24.62881  24.36236  39.12302  3      421
siesta:     21.60714  23.63670  35.90292  2      422
siesta:     22.41216  25.18817  34.81822  1      423
siesta:     22.72019  21.97752  35.37191  1      424
siesta:     18.89727  23.25498  34.93160  2      425
siesta:     19.00498  22.70696  32.39559  3      426
siesta:     17.93351  21.13093  35.98796  3      427
siesta:     16.93573  25.38092  35.18860  2      428
siesta:     17.10770  26.15760  37.07077  1      429
siesta:     17.45541  26.85302  33.84123  1      430
siesta:     14.08791  24.82156  34.78609  2      431
siesta:     12.91628  27.08923  34.50641  3      432
siesta:     13.82335  23.67828  32.49007  3      433
siesta:     12.55912  23.28710  36.74196  2      434
siesta:     10.70530  22.91861  35.95016  1      435
siesta:     13.52478  21.47486  36.95550  1      436
siesta:     12.14716  24.34913  39.44427  2      437
siesta:     14.01044  23.33624  40.91070  3      438
siesta:     12.63849  26.87003  39.42726  3      439
siesta:      9.59981  23.94284  40.75952  2      440
siesta:      8.11071  24.29622  39.35167  1      441
siesta:      9.48643  21.96430  41.30187  1      442
siesta:      8.93652  25.55100  43.08577  2      443
siesta:      7.19230  24.19606  44.39157  3      444
siesta:     10.98120  25.62281  44.64669  3      445
siesta:      7.88205  28.26653  42.85712  2      446
siesta:      7.30190  28.78243   0.06992  1      447
siesta:      9.49021  29.47029  42.41303  1      448
siesta:      5.76556  29.01298  40.99385  2      449
siesta:      6.71609  28.76353  38.60334  3      450
siesta:      3.96654  27.20451  41.18282  3      451
siesta:      4.49188  31.62647  41.19983  2      452
siesta:      3.90984  31.81544  43.16136  1      453
siesta:      5.89595  33.06644  40.83322  1      454
siesta:      2.15240  32.27654  39.55576  2      455
siesta:      0.06236  31.80032  40.95983  3      456
siesta:      2.10516  34.84278  39.20238  3      457
siesta:      1.83870  31.01798  36.93660  2      458
siesta:      3.64906  31.18616  35.97473  1      459
siesta:      1.46832  29.01865  37.26541  1      460
siesta:     42.41870  31.92316  35.01853  2      461
siesta:     40.26441  32.39370  36.34701  3      462
siesta:      0.57826  34.20784  34.09823  3      463
siesta:     41.73273  30.27720  32.69416  2      464
siesta:      0.65951  30.53232  31.35057  1      465
siesta:     41.76674  28.33268  33.31400  1      466
siesta:     39.19483  30.62113  31.29199  2      467
siesta:     37.43171  29.52698  32.84723  3      468
siesta:     38.59011  33.11179  31.24474  3      469
siesta:     38.76586  29.54777  28.60669  2      470
siesta:     38.42949  27.51253  28.79377  1      471
siesta:     37.00085  30.34334  27.92449  1      472
siesta:     40.78220  29.87280  26.51287  2      473
siesta:      0.19275  28.37992  27.09490  3      474
siesta:     39.79954  28.83534  24.38315  3      475
siesta:     41.82721  32.49763  25.77587  2      476
siesta:     40.22662  33.56722  25.01054  1      477
siesta:     42.41681  33.44628  27.51253  1      478
siesta:      1.44375  32.77353  23.85969  2      479
siesta:      1.73288  30.51342  22.66727  3      480
siesta:      0.62928  34.34201  21.99453  3      481
siesta:      4.04591  33.76186  24.72519  2      482
siesta:      3.80780  35.78009  25.09557  1      483
siesta:      4.48999  32.88503  26.53366  1      484
siesta:      6.38350  33.46517  23.00554  2      485
siesta:      7.22254  31.06333  23.24742  3      486
siesta:      5.62005  33.60123  20.55456  3      487
siesta:      8.67952  35.23207  23.38726  2      488
siesta:      8.44708  36.16559  25.21841  1      489
siesta:     10.32547  34.03587  23.49686  1      490
siesta:      9.23132  37.39581  21.51265  2      491
siesta:     11.62560  38.21028  21.98319  3      492
siesta:      9.41651  36.40748  19.14293  3      493
siesta:      7.43985  39.71450  21.31423  2      494
siesta:      7.19797  40.08867  19.29411  1      495
siesta:      5.61438  39.11357  22.02855  1      496
siesta:      8.13149  42.23918  22.59546  2      497
siesta:      5.92996  43.52230  22.88270  3      498
siesta:      8.90628  41.74785  24.98975  3      499
siesta:     10.09492  44.03820  21.42194  2      500
siesta:     10.06091  45.76730  22.58035  1      501
siesta:     11.91473  43.14435  21.64304  1      502
siesta:      9.88138  44.81676  18.64405  2      503
siesta:     10.77522  42.89680  17.20218  3      504
siesta:      7.39639  44.95660  17.96374  3      505
siesta:     11.18718   0.93541  17.60848  2      506
siesta:     13.17707   0.82581  18.12059  1      507
siesta:     11.10781   0.81258  15.55812  1      508
siesta:     10.27822   3.63961  18.30012  2      509
siesta:      8.27133   4.17630  16.78266  3      510
siesta:      9.34281   3.58859  20.70007  3      511
siesta:     12.19252   5.83170  18.09791  2      512
siesta:     13.76288   5.44052  19.38104  1      513
siesta:     12.96731   5.77878  16.19874  1      514
siesta:     11.37616   8.60393  18.57602  2      515
siesta:     13.36604   9.71131  19.73631  3      516
siesta:     11.27222   9.74910  16.27811  3      517
siesta:      8.96675   9.30502  20.11992  2      518
siesta:      7.38316   8.44141  19.19018  1      519
siesta:      9.19919   8.46220  21.99642  1      520
siesta:      8.19952  12.08858  20.47519  2      521
siesta:     10.22531  13.48509  21.23486  3      522
siesta:      7.54568  13.06557  18.20374  3      523
siesta:      5.99043  12.73109  22.29122  2      524
siesta:      4.22354  12.51188  21.22541  1      525
siesta:      5.98665  11.27222  23.77654  1      526
siesta:      5.91673  15.34269  23.61403  2      527
siesta:      6.49310  17.13415  21.84902  3      528
siesta:      3.49599  15.92662  24.23953  3      529
siesta:      7.53056  15.84725  25.96485  2      530
siesta:      9.50344  15.91339  25.33368  1      531
siesta:      7.02411  17.74076  26.63948  1      532
siesta:      7.46064  14.08791  28.27409  2      533
siesta:      5.19864  12.90872  28.43472  3      534
siesta:      9.08959  12.15283  27.78654  3      535
siesta:      8.19952  15.11593  30.91971  2      536
siesta:      9.78879  13.97831  31.50742  1      537
siesta:      8.84014  17.05290  30.69672  1      538
siesta:      6.30602  15.07057  33.14203  2      539
siesta:      6.88994  17.05290  34.67082  3      540
siesta:      3.96276  15.66395  32.26142  3      541
siesta:      6.13594  12.69519  34.86735  2      542
siesta:      4.35771  12.82558  35.89347  1      543
siesta:      6.03768  11.05490  33.64092  1      544
siesta:      8.18441  12.20764  36.88747  2      545
siesta:     10.19697  13.77233  36.43015  3      546
siesta:      7.23576  12.90683  39.19483  3      547
siesta:      9.30502   9.56013  37.27108  2      548
siesta:     10.56357   9.69808  38.89625  1      549
siesta:      7.74599   8.32047  37.84556  1      550
siesta:     10.72798   8.22787  35.10168  2      551
siesta:      9.06880   6.68396  33.87524  3      552
siesta:     11.44608   9.90973  33.32722  3      553
siesta:     13.12982   6.63672  35.62135  2      554
siesta:     13.96508   6.19263  33.79777  1      555
siesta:     14.45263   7.80835  36.68149  1      556
siesta:     12.89739   4.11016  37.08400  2      557
siesta:     10.77711   4.21598  38.53153  3      558
siesta:     12.41173   2.22421  35.39458  3      559
siesta:     15.05356   3.19364  38.84901  2      560
siesta:     15.04223   4.46353  40.47417  1      561
siesta:     14.52255   1.30013  39.45183  1      562
siesta:     17.81823   3.04057  37.91737  2      563
siesta:     18.67806   5.44430  37.77753  3      564
siesta:     19.16561   1.96343  39.83166  3      565
siesta:     18.58357   1.71398  35.41348  2      566
siesta:     17.19651   2.24311  33.99808  1      567
siesta:     20.37881   2.56247  34.83145  1      568
siesta:     18.90672  45.06999  35.10735  2      569
siesta:     16.98109  44.25173  33.58612  3      570
siesta:     20.97597  44.76763  33.63147  3      571
siesta:     19.25821  43.19538  37.32400  2      572
siesta:     20.05378  41.47950  36.54354  1      573
siesta:     20.68117  43.98906  38.59011  1      574
siesta:     17.04156  42.31476  39.00963  2      575
siesta:     17.87115  40.15292  40.12646  3      576
siesta:     16.81857  43.95883  40.95605  3      577
siesta:     14.38082  41.82155  37.90225  2      578
siesta:     13.88004  43.37112  36.64747  1      579
siesta:     14.51310  40.08867  36.80054  1      580
siesta:     12.07913  41.53431  39.66537  2      581
siesta:     12.93329  40.56110  41.88958  3      582
siesta:     11.30435  43.89080  40.27764  3      583
siesta:      9.75099  39.93560  38.92648  2      584
siesta:     10.14027  38.00430  39.57655  1      585
siesta:      8.14283  40.63858  40.01497  1      586
siesta:      8.84014  39.72584  36.14859  2      587
siesta:      6.28145  39.75796  36.18260  3      588
siesta:      9.45997  41.96516  34.99585  3      589
siesta:      9.78501  37.59612  34.38736  2      590
siesta:      9.56391  38.30098  32.46929  1      591
siesta:     11.78245  37.38069  34.74263  1      592
siesta:      8.62660  34.92215  34.48374  2      593
siesta:      7.96898  34.37413  36.91392  3      594
siesta:      6.37027  34.97884  33.22518  3      595
siesta:     10.16484  32.65448  33.46895  2      596
siesta:     12.11693  32.91526  34.05099  1      597
siesta:      9.44863  30.97451  34.42704  1      598
siesta:     10.24421  32.04788  30.60602  2      599
siesta:      9.19352  33.98296  29.26053  3      600
siesta:     12.71030  32.12725  29.88414  3      601
siesta:      9.17462  29.57423  29.54399  2      602
siesta:      9.29557  29.70462  27.50875  1      603
siesta:     10.46531  28.04733  30.12225  1      604
siesta:      6.45720  28.71629  30.19784  2      605
siesta:      5.16840  30.75908  31.07467  3      606
siesta:      5.24588  28.22496  27.97741  3      607
siesta:      5.96020  26.54310  32.09323  2      608
siesta:      7.23765  26.77365  33.67304  1      609
siesta:      4.07236  26.81711  32.78487  1      610
siesta:      6.13594  23.76143  31.23530  2      611
siesta:      8.06157  23.59891  29.53454  3      612
siesta:      7.01089  22.35925  33.22518  3      613
siesta:      3.76434  22.43106  30.16760  2      614
siesta:      3.15773  23.52143  28.54243  1      615
siesta:      4.38984  20.56401  29.51564  1      616
siesta:      1.38139  21.94918  31.78521  2      617
siesta:     42.54531  24.11480  31.71718  3      618
siesta:     42.57366  20.19362  30.51909  3      619
siesta:      1.56469  20.94951  34.50452  2      620
siesta:      0.09449  19.53600  34.69916  1      621
siesta:      3.34860  19.97819  34.63491  1      622
siesta:      1.33793  22.71641  36.84589  2      623
siesta:      3.08781  24.58913  36.62858  3      624
siesta:     41.67415  23.94662  36.70228  3      625
siesta:      1.56469  21.65438  39.56143  2      626
siesta:      2.09193  23.22852  40.79731  1      627
siesta:     42.29965  20.98542  40.08678  1      628
siesta:      3.44497  19.47364  40.06977  2      629
siesta:      2.59648  17.37037  38.85278  3      630
siesta:      5.59548  20.08591  38.83011  3      631
siesta:      4.23677  18.67239  42.74940  2      632
siesta:      4.88683  16.72408  42.55854  1      633
siesta:      5.90351  19.78166  43.23128  1      634
siesta:      2.39239  18.81223   0.30614  2      635
siesta:      2.81191  21.11392   1.41730  3      636
siesta:      0.02079  18.97475  44.01363  3      637
siesta:      2.30736  16.80345   2.43775  2      638
siesta:      1.58548  17.78989   4.11771  1      639
siesta:      0.87494  15.39938   1.88028  1      640
siesta:      4.61282  15.34836   3.37316  2      641
siesta:      3.71142  13.43596   4.84148  3      642
siesta:      5.71453  14.11248   1.39840  3      643
siesta:      6.65562  16.68062   4.93219  2      644
siesta:      6.86349  18.55145   4.12527  1      645
siesta:      5.89406  16.90172   6.82380  1      646
siesta:      9.32202  15.49198   5.27801  2      647
siesta:     10.52578  16.84125   7.07892  3      648
siesta:      9.00833  13.15061   6.31169  3      649
siesta:     11.21742  15.20663   3.04813  2      650
siesta:     13.04667  14.76066   3.89284  1      651
siesta:     10.62215  13.55123   1.95398  1      652
siesta:     11.61615  17.37037   1.16974  2      653
siesta:      9.74343  17.28155  44.14024  3      654
siesta:     11.21175  19.58891   2.40562  3      655
siesta:     14.14272  17.68595  44.42748  2      656
siesta:     14.61704  19.69473  44.53519  1      657
siesta:     15.58080  16.64471   0.82959  1      658
siesta:     14.38460  16.90361  41.63635  2      659
siesta:     12.64227  18.21130  40.27197  3      660
siesta:     16.63905  17.82768  40.76708  3      661
siesta:     14.19563  14.09925  40.79353  2      662
siesta:     12.25866  13.49643  41.13180  1      663
siesta:     14.48665  14.06902  38.76019  1      664
siesta:     15.92473  12.07347  41.97650  2      665
siesta:     15.40127  11.96386  44.48984  3      666
siesta:     15.19151   9.74532  41.11101  3      667
siesta:     18.83113  12.26244  41.69493  2      668
siesta:     19.41505  14.06902  42.48106  1      669
siesta:     19.63048  10.75822  42.85712  1      670
siesta:     20.09158  12.05268  39.09845  2      671
siesta:     18.44373  10.92451  37.48462  3      672
siesta:     20.34480  14.45830  38.16681  3      673
siesta:     22.66160  10.67507  38.79798  2      674
siesta:     22.30445   8.71164  39.34789  1      675
siesta:     23.11325  10.62404  36.80810  1      676
siesta:     25.06345  11.61993  40.17559  2      677
siesta:     26.60357  12.73676  38.44838  3      678
siesta:     24.39448  13.59092  41.69871  3      679
siesta:     26.61869   9.76800  41.77052  2      680
siesta:     25.47541   9.25777  43.38435  1      681
siesta:     26.90782   8.08425  40.66503  1      682
siesta:     29.25675  10.53334  42.77019  2      683
siesta:     30.21295   8.47543  43.97016  3      684
siesta:     30.81011  10.84325  40.75007  3      685
siesta:     29.59123  12.83125  44.48795  2      686
siesta:     31.58112  12.92762   0.29858  1      687
siesta:     29.16982  14.48287  43.37301  1      688
siesta:     28.09457  13.05612   2.30169  2      689
siesta:     27.11947  10.74310   2.89128  3      690
siesta:     29.80666  13.42462   4.16496  3      691
siesta:     26.01020  15.07624   2.68719  2      692
siesta:     26.59035  16.30456   4.24055  1      693
siesta:     25.93272  16.23842   1.00533  1      694
siesta:     23.27199  14.21831   3.26167  2      695
siesta:     22.56712  12.51377   1.48722  3      696
siesta:     23.24553  12.84069   5.41974  3      697
siesta:     21.15738  16.21197   3.36371  2      698
siesta:     22.03611  18.06012   3.35049  1      699
siesta:     20.14827  16.04567   1.59682  1      700
siesta:     19.19585  16.25543   5.51044  2      701
siesta:     17.68217  18.28500   5.04368  3      702
siesta:     17.61792  14.25232   5.17029  3      703
siesta:     19.92717  16.32535   8.33370  2      704
siesta:     18.24153  17.01132   9.31824  1      705
siesta:     20.27110  14.36948   8.92140  1      706
siesta:     22.16650  17.92406   9.28423  2      707
siesta:     22.17972  17.68217  11.82591  3      708
siesta:     24.30756  16.76188   8.53401  3      709
siesta:     22.43295  20.76810   8.67007  2      710
siesta:     20.86825  21.27266   7.44930  1      711
siesta:     22.19862  21.81690  10.42940  1      712
siesta:     24.84235  21.84524   7.42096  2      713
siesta:     24.86692  21.15549   4.94730  3      714
siesta:     24.53054  24.40393   7.28301  3      715
siesta:     27.54277  21.34258   8.44897  2      716
siesta:     28.09079  19.45663   7.77056  1      717
siesta:     28.75786  22.72586   7.53056  1      718
siesta:     28.06055  21.41061  11.32891  2      719
siesta:     26.88892  23.51576  12.27189  3      720
siesta:     26.81900  19.48497  12.44007  3      721
siesta:     30.78176  21.36903  12.33047  2      722
siesta:     31.97985  22.14004  10.83191  1      723
siesta:     30.84790  22.65216  13.96130  1      724
siesta:     32.00819  18.81979  13.09014  2      725
siesta:     31.27120  17.04534  11.37616  3      726
siesta:     34.52909  19.09569  12.66873  3      727
siesta:     31.58112  17.69540  15.76032  2      728
siesta:     30.95184  19.24876  16.91117  1      729
siesta:     29.98808  16.44062  15.57891  1      730
siesta:     33.67871  16.34614  17.21730  2      731
siesta:     35.50230  18.07524  17.81446  3      732
siesta:     32.66771  15.63182  19.44529  3      733
siesta:     35.02609  13.99154  16.12882  2      734
siesta:     33.84879  12.39283  16.63905  1      735
siesta:     34.96184  14.15027  14.09736  1      736
siesta:     37.74540  13.30935  16.90361  2      737
siesta:     37.87202  13.34903  19.48497  3      738
siesta:     38.10256  10.83947  16.27244  3      739
siesta:     40.02064  14.80979  15.81323  2      740
siesta:     40.26630  14.12571  13.87249  1      741
siesta:     39.52742  16.82424  15.70363  1      742
siesta:      0.05291  14.60948  17.08502  2      743
siesta:     42.48106  15.47875  19.50954  3      744
siesta:      0.58959  12.11126  17.35903  3      745
siesta:      2.42641  15.90016  15.98898  2      746
siesta:      3.07081  17.20596  17.43273  1      747
siesta:      3.86071  14.42617  15.83591  1      748
siesta:      2.39428  17.34769  13.46997  2      749
siesta:      4.86227  17.54611  12.77266  3      750
siesta:      1.36816  15.78300  11.70497  3      751
siesta:      1.23021  20.02922  13.21864  2      752
siesta:      0.17952  20.43740  14.93829  1      753
siesta:      2.78546  21.35769  13.14683  1      754
siesta:     42.03508  20.66794  10.99065  2      755
siesta:      0.65196  19.92150   8.82313  3      756
siesta:     39.98473  19.15049  11.23632  3      757
siesta:     41.08077  23.39293  10.58625  2      758
siesta:     42.55098  24.63826  11.28167  1      759
siesta:     40.90881  23.68017   8.53968  1      760
siesta:     38.58822  24.31512  11.77678  2      761
siesta:     38.38791  26.83223  11.28734  3      762
siesta:     36.66448  23.24364  10.41617  3      763
siesta:     38.07233  23.97119  14.62649  2      764
siesta:     37.79454  21.96619  14.97231  1      765
siesta:     39.77308  24.60991  15.62237  1      766
siesta:     35.82355  25.32990  15.88882  2      767
siesta:     34.14547  25.96863  14.00855  3      768
siesta:     34.59334  23.57434  17.35714  3      769
siesta:     36.29031  27.66371  17.59525  2      770
siesta:     37.23140  27.00987  19.34324  1      771
siesta:     37.58478  28.89581  16.53700  1      772
siesta:     33.99997  29.29077  18.41161  2      773
siesta:     33.36502  30.81389  16.41039  3      774
siesta:     31.94583  27.73930  18.70263  3      775
siesta:     34.08878  30.96506  20.77566  2      776
siesta:     32.13670  31.43939  21.26888  1      777
siesta:     34.82389  29.80855  22.32712  1      778
siesta:     35.65159  33.42360  20.84558  2      779
siesta:     35.88024  34.19272  23.29655  3      780
siesta:     38.07233  32.80188  20.20118  3      781
siesta:     34.94105  35.78009  19.26766  2      782
siesta:     36.61346  37.00463  19.23553  1      783
siesta:     34.62925  35.19238  17.33824  1      784
siesta:     32.68661  37.48651  20.06323  2      785
siesta:     30.78554  35.91615  20.83802  3      786
siesta:     33.35368  38.82444  22.12681  3      787
siesta:     31.55277  39.36679  18.14894  2      788
siesta:     33.03054  40.72928  17.69162  1      789
siesta:     31.12002  38.25185  16.46708  1      790
siesta:     29.13581  40.89369  18.78389  2      791
siesta:     28.75786  42.49051  16.81668  3      792
siesta:     27.10246  39.32333  18.70074  3      793
siesta:     28.98652  42.52641  21.18573  2      794
siesta:     30.88759  42.79664  21.91705  1      795
siesta:     28.30055  44.34811  20.56779  1      796
siesta:     27.29144  41.71383  23.42316  2      797
siesta:     24.83857  41.91792  22.69751  3      798
siesta:     27.65237  39.18727  23.81812  3      799
siesta:     27.55033  42.95727  26.06689  2      800
siesta:     26.65082  41.68737  27.41427  1      801
siesta:     29.56289  42.99696  26.52988  1      802
siesta:     26.46562  45.63690  26.54877  2      803
siesta:     27.51631   1.02612  24.83857  3      804
siesta:     23.95229  45.58588  26.04611  3      805
siesta:     26.74341   0.55369  29.22841  2      806
siesta:     26.09146  45.38557  30.59657  1      807
siesta:     28.74275   0.84849  29.54966  1      808
siesta:     25.42250   3.06892  29.88414  2      809
siesta:     25.77965   4.77534  27.99819  3      810
siesta:     22.88648   2.63806  29.85579  3      811
siesta:     25.94406   4.42763  32.42204  2      812
siesta:     24.64960   6.03012  32.50519  1      813
siesta:     25.36391   3.15962  33.95650  1      814
siesta:     28.63125   5.46887  32.99085  2      815
siesta:     29.66115   3.87583  34.70483  3      816
siesta:     30.14870   5.15140  30.91215  3      817
siesta:     28.98085   8.15984  34.04532  2      818
siesta:     27.44261   8.51511  35.36813  1      819
siesta:     30.73074   8.12583  35.14136  1      820
siesta:     29.11313  10.45397  32.22740  2      821
siesta:     27.21963  10.21586  30.52098  3      822
siesta:     28.47440  12.56290  33.57856  3      823
siesta:     31.60379  11.03034  30.82522  2      824
siesta:     32.94739  11.68607  32.24252  1      825
siesta:     32.31622   9.25210  30.11469  1      826
siesta:     31.70017  12.95219  28.61613  2      827
siesta:     30.77231  15.17829  29.52509  3      828
siesta:     34.17760  13.49265  28.14559  3      829
siesta:     30.42082  12.47031  26.03666  2      830
siesta:     28.37425  12.74999  26.32012  1      831
siesta:     31.11813  13.91595  24.79322  1      832
siesta:     30.76286   9.92674  24.66283  2      833
siesta:     33.00219   8.92140  25.37714  3      834
siesta:     29.00920   8.29401  25.60958  3      835
siesta:     30.48507   9.72831  21.75643  2      836
siesta:     28.48952   9.28423  21.41816  1      837
siesta:     30.83467  11.60103  20.99109  1      838
siesta:     32.10079   7.84237  20.19929  2      839
siesta:     31.44694   8.15417  17.73698  3      840
siesta:     34.52153   8.64739  20.33346  3      841
siesta:     32.00252   4.97187  20.74164  2      842
siesta:     32.13103   4.76022  22.77121  1      843
siesta:     30.10713   4.36149  20.18417  1      844
siesta:     33.86202   3.07648  19.52088  2      845
siesta:     35.64403   2.48877  21.29911  3      846
siesta:     32.58267   0.85794  19.28277  3      847
siesta:     35.31711   3.63206  17.04723  2      848
siesta:     35.91804   5.62572  17.12093  1      849
siesta:     37.02164   2.48499  17.10770  1      850
siesta:     34.05288   3.24277  14.46397  2      851
siesta:     31.77009   4.42196  14.48476  3      852
siesta:     35.38325   4.58070  12.72353  3      853
siesta:     33.58801   0.55747  13.41517  2      854
siesta:     32.08567  45.94304  14.52822  1      855
siesta:     32.85668   0.82581  11.49332  1      856
siesta:     35.74607  44.83566  13.21297  2      857
siesta:     37.96083  46.11500  12.98998  3      858
siesta:     35.95583  43.63946  15.48442  3      859
siesta:     35.77253  42.82877  11.11537  2      860
siesta:     36.36023  43.75096   9.37116  1      861
siesta:     37.23896  41.48517  11.59725  1      862
siesta:     33.37636  41.26975  10.45208  2      863
siesta:     31.87402  41.08644  12.53456  3      864
siesta:     32.00819  42.75129   8.79857  3      865
siesta:     33.57100  38.62602   9.21053  2      866
siesta:     31.65293  37.90225   9.04612  1      867
siesta:     34.27965  38.95294   7.29057  1      868
siesta:     35.25663  36.54543  10.37649  2      869
siesta:     37.68304  36.94605   9.55446  3      870
siesta:     35.39458  36.90259  12.94463  3      871
siesta:     34.65003  33.71651   9.95886  2      872
siesta:     35.72718  32.69794  11.41773  1      873
siesta:     32.63558  33.43305  10.36137  1      874
siesta:     35.15837  32.46173   7.40584  2      875
siesta:     34.36090  34.01886   5.53501  3      876
siesta:     37.70383  32.37858   7.12805  3      877
siesta:     34.11713  29.80099   6.77089  2      878
siesta:     35.30955  29.05455   5.22698  1      879
siesta:     34.37413  28.61424   8.45086  1      880
siesta:     31.34112  29.52887   5.88272  2      881
siesta:     30.54932  27.19506   6.60460  3      882
siesta:     29.92949  31.13325   7.32836  3      883
siesta:     30.62869  29.95217   3.09348  2      884
siesta:     31.43183  31.76253   2.61160  1      885
siesta:     31.59812  28.51598   1.95209  1      886
siesta:     27.84324  29.97863   2.22421  2      887
siesta:     27.66938  28.38370   0.19464  3      888
siesta:     26.42783  28.82022   4.03457  3      889
siesta:     26.54688  32.46740   1.38328  2      890
siesta:     27.63348  33.24219  44.51441  1      891
siesta:     24.70818  31.90615   0.66140  1      892
siesta:     26.04611  34.59712   3.28435  2      893
siesta:     24.66094  33.63336   5.21943  3      894
siesta:     28.27976  35.22829   4.40306  3      895
siesta:     24.79322  37.09156   2.41696  2      896
siesta:     25.25242  38.50507   3.83804  1      897
siesta:     25.67572  37.64147   0.63117  1      898
siesta:     21.93595  37.22384   1.95587  2      899
siesta:     21.23486  35.22451   0.50645  3      900
siesta:     20.75109  36.87046   4.19519  3      901
siesta:     20.75487  39.59167   0.69542  2      902
siesta:     21.69784  39.85623  43.56576  1      903
siesta:     18.76121  39.13813   0.31747  1      904
siesta:     20.78322  42.16359   2.07681  2      905
siesta:     23.23608  42.79664   2.53412  3      906
siesta:     20.05945  43.93237   0.36472  3      907
siesta:     19.32813  42.63224   4.57125  2      908
siesta:     20.01977  41.25085   5.92807  1      909
siesta:     19.85158  44.49740   5.28557  1      910
siesta:     16.41795  42.49618   4.69030  2      911
siesta:     15.71119  40.02630   4.46165  3      912
siesta:     15.72253  43.15380   7.08459  3      913
siesta:     14.79467  44.03820   2.78546  2      914
siesta:     15.75654  45.82399   2.48499  1      915
siesta:     14.78333  42.97617   0.98644  1      916
siesta:     12.03000  44.61267   3.51489  2      917
siesta:     10.99821  42.48862   4.48810  3      918
siesta:     12.04512   0.03024   5.45753  3      919
siesta:     10.13272  45.62179   1.53635  2      920
siesta:     10.14594  44.32165  44.64291  1      921
siesta:      8.26000  45.55376   2.37539  1      922
siesta:     10.48043   2.05413   0.47054  2      923
siesta:     12.81424   2.11271  44.10245  3      924
siesta:      8.86849   2.27523  43.21805  3      925
siesta:     10.14783   4.42385   2.14484  2      926
siesta:      8.75510   3.99488   3.60749  1      927
siesta:     11.95063   4.77534   3.10860  1      928
siesta:      9.40517   6.95986   0.91274  2      929
siesta:      9.74343   8.80613   2.67774  3      930
siesta:     11.13994   7.49088  43.76418  3      931
siesta:      6.79168   7.44552  44.45582  2      932
siesta:      6.64239   9.48832  44.14780  1      933
siesta:      6.79168   6.50822  42.60200  1      934
siesta:      4.33881   6.61782   1.14895  2      935
siesta:      4.03646   4.09126   0.75400  3      936
siesta:      4.73566   6.77656   3.68308  3      937
siesta:      1.80091   7.95386   0.53668  2      938
siesta:      0.43275   7.18285   1.85760  1      939
siesta:      2.07492   9.92107   0.98833  1      940
siesta:      0.62361   7.82158  42.51319  2      941
siesta:      2.50956   7.75166  40.78220  3      942
siesta:     42.05776   5.52178  42.31476  3      943
siesta:     41.23195   9.77556  41.62312  2      944
siesta:     40.36268   8.99132  39.91859  1      945
siesta:     39.76363   9.87004  43.08010  1      946
siesta:     42.03131  12.47220  40.93715  2      947
siesta:      1.51556  13.11281  42.35634  3      948
siesta:      0.39873  12.41173  38.51641  3      949
siesta:     40.16237  14.70963  41.10534  2      950
siesta:     40.11323  15.24254  43.09144  1      951
siesta:     40.97117  16.25543  40.06788  1      952
siesta:     37.39958  14.49609  40.16048  2      953
siesta:     36.18071  12.82369  41.66092  3      954
siesta:     36.28465  16.75999  40.69149  3      955
siesta:     36.72495  13.82335  37.40147  2      956
siesta:     37.27108  11.86937  37.04432  1      957
siesta:     34.65570  13.86493  37.28242  1      958
siesta:     37.75485  15.44852  35.21884  2      959
siesta:     35.77064  16.01355  33.67682  3      960
siesta:     38.37468  17.75965  36.16559  3      961
siesta:     39.98284  14.58113  33.59178  2      962
siesta:     40.11134  15.92473  32.04032  1      963
siesta:     41.66848  14.75310  34.74830  1      964
siesta:     40.03008  11.91284  32.42393  2      965
siesta:     40.92015  10.38972  34.31555  3      966
siesta:     37.59045  11.16640  32.00630  3      967
siesta:     41.63068  11.33458  30.03343  2      968
siesta:      0.92597  12.13394  30.33957  1      969
siesta:     41.83288   9.27100  29.95028  1      970
siesta:     40.72739  12.21142  27.39159  2      971
siesta:     39.69560  14.55846  27.62970  3      972
siesta:      0.21543  12.70652  25.98563  3      973
siesta:     38.92081  10.58625  25.78532  2      974
siesta:     37.42604   9.86815  27.00798  1      975
siesta:     38.04776  11.82402  24.39070  1      976
siesta:     39.96772   8.28834  24.33401  2      977
siesta:     41.13746   6.74821  26.02721  3      978
siesta:     37.90792   6.94475  23.56678  3      979
siesta:     41.71761   8.59448  22.02288  2      980
siesta:     40.59133   8.13149  20.35803  1      981
siesta:     42.25807  10.57680  21.87926  1      982
siesta:      1.58359   7.04679  21.92272  2      983
siesta:      2.88750   7.83292  19.82890  3      984
siesta:      2.99522   7.79323  23.94095  3      985
siesta:      1.53824   4.12716  21.94729  2      986
siesta:      3.49033   3.49599  22.20240  1      987
siesta:      0.50645   3.54135  23.61214  1      988
siesta:      0.41952   2.61727  19.71363  2      989
siesta:     40.94093   1.36816  20.62259  3      990
siesta:     42.03131   4.26700  17.99587  3      991
siesta:      2.13917   0.69542  18.39082  2      992
siesta:      3.73410   1.77823  17.69351  1      993
siesta:      2.79302  45.62935  19.84024  1      994
siesta:      1.19053  45.31565  16.16094  2      995
siesta:      0.24189   0.62172  14.31279  3      996
siesta:      3.29568  44.27252  15.11404  3      997
siesta:     41.84611  43.17459  16.54078  2      998
siesta:     40.38346  43.90591  17.75398  1      999
siesta:     41.00518  42.81365  14.68129  1     1000
siesta:      0.06803  40.59700  17.67462  2     1001
siesta:      1.74800  41.06943  19.58513  3     1002
siesta:     40.61779  39.59356  18.88593  3     1003
siesta:      1.30580  38.56744  16.00032  2     1004
siesta:      3.22009  39.21750  15.54678  1     1005
siesta:      1.46454  36.93660  17.22675  1     1006
siesta:      0.05858  37.74351  13.52100  2     1007
siesta:     40.16614  38.44838  13.60603  3     1008
siesta:      1.04313  39.19294  11.64261  3     1009
siesta:      0.20598  34.97507  12.60637  2     1010
siesta:     41.86501  34.87869  10.75822  1     1011
siesta:      2.18641  34.53098  12.27756  1     1012
siesta:     41.61557  32.83778  14.22586  2     1013
siesta:     39.84300  33.87146  15.76599  3     1014
siesta:     40.26441  31.32222  12.67251  3     1015
siesta:      0.71621  31.17104  15.88504  2     1016
siesta:      1.77445  32.43716  17.11526  1     1017
siesta:     42.03886  30.07122  17.08124  1     1018
siesta:      2.57570  29.27754  14.65861  2     1019
siesta:      1.86138  26.89459  15.33891  3     1020
siesta:      2.19208  29.33990  12.10748  3     1021
siesta:      5.44052  29.46651  15.18207  2     1022
siesta:      5.72776  29.36258  17.20596  1     1023
siesta:      6.27767  27.78276  14.37704  1     1024
siesta:      6.99388  31.74363  14.22397  2     1025
siesta:      6.30791  32.23496  11.80323  3     1026
siesta:      6.18697  33.83745  15.47308  3     1027
siesta:      9.91162  31.67938  14.27878  2     1028
siesta:     10.52578  31.01609  12.43818  1     1029
siesta:     10.51066  33.65226  14.52444  1     1030
siesta:     11.36104  30.10335  16.28945  2     1031
siesta:     10.38594  30.74586  18.60436  3     1032
siesta:     10.76199  27.61458  15.98520  3     1033
siesta:     14.26744  30.25453  16.43306  2     1034
siesta:     14.71908  32.20473  15.91150  1     1035
siesta:     14.79845  30.01642  18.40216  1     1036
siesta:     15.95118  28.48574  14.79089  2     1037
siesta:     14.59058  27.66938  12.74621  3     1038
siesta:     17.78422  29.99186  13.82335  3     1039
siesta:     17.27399  26.18217  16.00599  2     1040
siesta:     18.40216  26.97018  17.51021  1     1041
siesta:     15.76599  25.05967  16.83369  1     1042
siesta:     18.92939  24.33212  14.52066  2     1043
siesta:     17.41194  22.43484  13.60225  3     1044
siesta:     19.81568  25.47352  12.42117  3     1045
siesta:     21.19518  23.00365  15.75654  2     1046
siesta:     21.40305  21.20840  14.76822  1     1047
siesta:     22.86570  24.11858  15.28033  1     1048
siesta:     21.31801  22.41972  18.60814  2     1049
siesta:     21.79422  24.62314  19.85158  3     1050
siesta:     18.93506  21.78477  19.38293  3     1051
siesta:     23.08868  20.32779  19.68340  2     1052
siesta:     22.42539  19.94040  21.56367  1     1053
siesta:     22.77499  18.61759  18.54389  1     1054
siesta:     25.98563  20.72463  19.81001  2     1055
siesta:     27.06278  18.43429  19.41316  3     1056
siesta:     26.64515  22.15138  17.78044  3     1057
siesta:     27.24986  22.01343  22.09091  2     1058
siesta:     29.24352  22.24586  21.60147  1     1059
siesta:     26.37870  23.88615  22.30067  1     1060
siesta:     27.24230  20.73597  24.71574  2     1061
siesta:     25.42250  18.91995  24.77621  3     1062
siesta:     29.44194  19.43395  24.88203  3     1063
siesta:     27.00042  22.27043  27.18372  2     1064
siesta:     27.02687  20.92117  28.71062  1     1065
siesta:     28.71440  23.42505  27.36702  1     1066
siesta:     24.68739  23.98063  27.72229  2     1067
siesta:     22.92617  23.55356  25.88548  3     1068
siesta:     23.58379  23.20207  29.89548  3     1069
siesta:     24.91038  26.87759  27.86402  2     1070
[...]
siesta:   1083   -0.141988    0.246091   -0.325829
siesta:   1084   -0.548420    0.143081    0.564811
siesta:   1085   -0.674156   -0.108803   -0.462201
siesta:   1086    0.305669   -1.153109    0.851111
siesta:   1087    0.523861    0.445376   -0.993918
siesta:   1088   -0.754050    0.533604    0.381165
siesta:   1089    0.068335   -0.456586    0.692530
siesta:   1090    0.874463    0.360735   -0.307324
siesta:   1091   -0.362722    0.160842   -0.015165
siesta:   1092   -0.209143    0.513555   -1.117190
siesta:   1093   -0.603467   -0.580916    0.690376
siesta:   1094   -0.215744   -1.061214   -0.020072
siesta:   1095    0.643522   -0.186240    0.502692
siesta:   1096    0.424558    0.602556   -0.443080
siesta:   1097   -0.807625    0.085375   -0.053986
siesta:   1098    0.729469    0.450764    0.618935
siesta:   1099   -0.518899    0.469132   -0.800608
siesta:   1100    0.776958   -0.079945    0.096225
siesta:   1101   -0.684870   -0.429618   -0.340091
siesta:   1102    0.112589   -0.165300    0.458065
siesta:   1103    0.580067    0.694955   -0.147188
siesta:   1104   -0.783766    0.634363   -1.033957
siesta:   1105   -0.484942   -0.596185    0.711960
siesta:   1106   -0.528434   -0.412380   -0.374906
siesta:   1107    0.993311   -0.660349    1.044691
siesta:   1108    0.299772    0.644619   -0.364365
siesta:   1109   -0.690270   -0.243228    0.242986
siesta:   1110    1.429051    0.781236    1.126147
siesta:   1111   -0.926733    0.800734   -1.642925
siesta:   1112   -0.267940   -0.554745   -0.315215
siesta:   1113   -0.460338   -0.464779   -0.354059
siesta:   1114    0.286856   -0.634719    0.878768
siesta:   1115   -0.239052   -0.022391   -0.284015
siesta:   1116    1.175365    0.754245    1.394594
siesta:   1117   -0.374173    1.116929   -1.199637
siesta:   1118    0.810407   -0.249848    0.060117
siesta:   1119   -0.686287   -0.404820   -0.695671
siesta:   1120    0.094882   -0.775740    0.717716
siesta:   1121    0.666112    0.322622    0.167910
siesta:   1122    0.140070    1.165264   -1.098049
siesta:   1123   -1.591119   -1.347997    0.478230
siesta:   1124   -0.448937    0.213674    0.349253
siesta:   1125    1.289109    0.302481    0.105818
siesta:   1126   -0.294215    0.671564   -0.217854
siesta:   1127   -0.296291    0.712659   -0.407412
siesta:   1128    0.224075   -1.662059   -0.076536
siesta:   1129    0.611589    0.671814    0.262031
siesta:   1130   -0.696006    0.577743   -0.550091
siesta:   1131   -0.651674   -0.619966   -0.485321
siesta:   1132    0.414957   -0.349633    1.199936
siesta:   1133    0.215739   -0.986281   -0.480006
siesta:   1134    0.550776    0.836112    0.688351
siesta:   1135   -0.349279   -0.090611   -1.164440
siesta:   1136   -0.458340    0.026407   -0.298551
siesta:   1137    0.044558    0.224113    1.037741
siesta:   1138    0.000441    0.827702   -0.301663
siesta:   1139    0.259528    0.438135    0.288084
siesta:   1140   -0.016808   -0.594264   -1.539720
siesta:   1141   -0.112821   -0.542526    1.586194
siesta:   1142   -0.113052    0.509723    0.106126
siesta:   1143   -0.171393    0.384917   -0.928356
siesta:   1144   -0.156328   -0.753729   -0.056174
siesta:   1145    0.608241   -0.765514   -0.223259
siesta:   1146    0.371640   -0.806828    1.274871
siesta:   1147    0.311765    1.002380   -0.281307
siesta:   1148   -0.866429   -0.420581   -0.848618
siesta:   1149    0.001748    0.197603    0.827441
siesta:   1150   -0.216063    0.680508   -0.491798
siesta:   1151    0.087559    0.436097    0.231354
siesta:   1152    0.331598   -0.102106   -1.963642
siesta:   1153    0.090804   -0.637103    0.679836
siesta:   1154    0.549238    0.048586   -0.721575
siesta:   1155   -0.207555   -0.615727   -0.069959
siesta:   1156   -0.522554    0.504754    1.088750
siesta:   1157    0.216006   -0.376070   -0.501615
siesta:   1158   -1.047762    0.144226    0.607595
siesta:   1159    0.895009    1.118328   -0.044325
siesta:   1160    0.131165    0.387481    0.730957
siesta:   1161    0.507142   -0.450089   -0.543030
siesta:   1162   -0.668058   -0.539551    0.002546
siesta:   1163    0.271576    0.940830    0.611362
siesta:   1164    1.431051    0.621540   -0.242846
siesta:   1165   -0.921955   -0.704586   -0.706072
siesta:   1166   -0.262799   -0.265747   -0.097405
siesta:   1167   -0.500843   -0.083647    0.103111
siesta:   1168   -0.145757    0.031832    0.912146
siesta:   1169   -0.283346   -0.672948    0.202757
siesta:   1170    1.170218    0.370521    0.719895
siesta:   1171   -0.196612   -0.063760   -1.825692
siesta:   1172   -0.126971   -0.573545   -0.376552
siesta:   1173   -0.355077    0.142512    0.621088
siesta:   1174    0.587307    0.490136   -0.161970
siesta:   1175   -0.380003    0.403029   -0.218082
siesta:   1176   -1.166784   -1.510999    0.238999
siesta:   1177    0.313772    0.890439    0.166885
siesta:   1178    0.363190   -0.030256   -0.107724
siesta:   1179    0.972319    0.131201   -0.378466
siesta:   1180    0.184715   -0.545362   -0.366169
siesta:   1181   -0.787375   -1.076588    0.557724
siesta:   1182   -0.910363   -0.611585    0.114214
siesta:   1183    0.747961    1.685491    0.148134
siesta:   1184   -0.108117   -0.848491   -0.349493
siesta:   1185   -0.503000    0.838964    0.163913
siesta:   1186    0.843519    0.443090   -0.558904
siesta:   1187    0.621513    0.761430    0.493438
siesta:   1188    1.705431   -1.046041   -0.228117
siesta:   1189   -1.505090   -0.293153    0.714417
siesta:   1190    1.250533    0.791349   -0.015199
siesta:   1191   -0.081767   -0.918679   -0.137185
siesta:   1192   -0.799334    0.510847   -0.000222
siesta:   1193    0.529684    0.134256   -0.406971
siesta:   1194   -1.026234   -0.220538   -0.865943
siesta:   1195    0.154881    0.929513    0.895517
siesta:   1196    0.359837   -0.285827    0.173057
siesta:   1197    0.536082   -0.305669    0.218899
siesta:   1198   -0.168213   -0.673729   -0.207797
siesta:   1199   -0.771326   -0.202731    0.041664
siesta:   1200   -1.192233    0.604837   -0.898147
siesta:   1201    0.503505    0.643960    1.210484
siesta:   1202   -1.048440   -1.182345   -0.330894
siesta:   1203    0.769558    1.031746    0.256833
siesta:   1204    0.647372   -0.899558    0.374061
siesta:   1205   -0.728181   -0.399876   -0.561078
siesta:   1206   -1.129151    1.032141   -0.186427
siesta:   1207    1.998719   -0.151719   -0.019333
siesta:   1208    1.116798   -0.060703    0.424380
siesta:   1209    0.148636   -0.820290    0.280129
siesta:   1210   -1.149291   -0.109240   -0.088921
siesta:   1211   -0.087449    1.090817   -0.399845
siesta:   1212   -0.214706   -1.399063    0.306121
siesta:   1213   -0.256381    0.882186   -0.314234
siesta:   1214    0.715444    0.280871    1.371383
siesta:   1215    0.250587   -0.291526    0.426739
siesta:   1216   -0.009152   -0.503941   -0.733412
siesta:   1217   -0.128281    0.499524   -0.577387
siesta:   1218    0.175254   -0.511640   -1.288862
siesta:   1219   -0.402655    1.046566    0.517462
siesta:   1220   -0.090152   -0.281734    0.388668
siesta:   1221   -0.221254    0.246519    0.732213
siesta:   1222    0.568354   -0.683501    0.224341
siesta:   1223   -0.323812   -0.002786   -0.312052
siesta:   1224    0.467966   -1.114159   -0.925934
siesta:   1225   -0.410545    0.782759   -0.245848
siesta:   1226    0.186219   -0.455075    0.341299
siesta:   1227   -0.221836    0.354709   -0.327373
siesta:   1228    0.019463    0.732241    0.455655
siesta:   1229    0.295174   -0.050518   -0.563564
siesta:   1230    0.512638    1.123651    0.682369
siesta:   1231   -0.619802   -1.400413    1.087661
siesta:   1232   -0.058999    0.261370   -0.464202
siesta:   1233   -0.424048   -0.544687   -0.349811
siesta:   1234    0.276664    0.607331   -0.488440
siesta:   1235   -0.400634    0.741255    0.493429
siesta:   1236   -0.179482   -0.007115    1.504681
siesta:   1237    0.247986   -0.931015   -1.083783
siesta:   1238   -0.955161    1.045368    0.616445
siesta:   1239    0.541038   -0.809091    0.562246
siesta:   1240    0.418728    0.117283   -1.135967
siesta:   1241   -0.399441   -0.669093    0.576020
siesta:   1242    1.832844    0.261216   -0.670541
siesta:   1243   -0.996877    0.447749   -0.202978
siesta:   1244   -0.246280   -1.079069   -0.109370
siesta:   1245   -0.245461    1.163402   -0.214653
siesta:   1246   -0.656459   -0.350061    0.520426
siesta:   1247   -1.226413   -0.322372   -1.338012
siesta:   1248   -0.768758    0.490539    1.185650
siesta:   1249    0.540424   -1.305687    0.109764
siesta:   1250    1.042586    0.470160   -0.481217
siesta:   1251   -0.157839    0.271316    0.245307
siesta:   1252   -0.680392   -0.186104    0.687085
siesta:   1253    0.677836    0.067563    0.361925
siesta:   1254   -0.867492   -0.717004    0.560142
siesta:   1255   -0.233962    0.295640    1.370279
siesta:   1256    0.484559   -0.583342    0.607022
siesta:   1257    0.635271    0.973475   -0.012271
siesta:   1258    0.096841   -0.116548   -0.550432
siesta:   1259    0.467084    0.855580   -0.528614
siesta:   1260   -0.093760    0.206288   -0.634134
siesta:   1261    0.472107    0.522741   -0.591370
siesta:   1262   -0.461757   -0.355008   -0.371445
siesta:   1263    0.696714   -0.168580   -0.767832
siesta:   1264   -0.441641   -0.438122    0.295290
siesta:   1265    0.133263   -0.028456    0.237318
siesta:   1266   -0.063009    0.543829    0.001212
siesta:   1267   -0.095947   -1.033100    0.419463
siesta:   1268    0.787492    0.635760    0.773075
siesta:   1269   -0.758484    0.426061    0.521164
siesta:   1270   -0.440798    0.216733   -0.054698
siesta:   1271    0.935838    0.185899   -0.147226
siesta:   1272   -0.343056   -0.687770    0.163475
siesta:   1273   -0.004796    0.453016    0.359722
siesta:   1274    0.027880   -0.638148    0.070527
siesta:   1275    0.158298    0.471314    0.139308
siesta:   1276   -0.026364    0.069225    0.023004
siesta:   1277    0.059574   -0.600805   -0.395052
siesta:   1278    0.119695    0.713292   -0.825835
siesta:   1279   -0.064371    0.222432   -0.789430
siesta:   1280   -0.061481    0.267735   -0.557391
siesta:   1281   -0.600203   -0.404011   -0.512193
siesta:   1282    0.762606   -0.470476   -0.581968
siesta: ----------------------------------------
siesta:    Tot    0.326271    0.075873    0.149322

siesta: Stress tensor (static) (eV/Ang**3):
siesta:     0.001865   -0.006180   -0.000552
siesta:    -0.006180   -0.001238    0.001866
siesta:    -0.000552    0.001866   -0.000759

siesta: Cell volume =      13041.289483 Ang**3

siesta: Pressure (static):
siesta:                Solid            Molecule  Units
siesta:           0.00000048         -0.00007688  Ry/Bohr**3
siesta:           0.00004410         -0.00705911  eV/Ang**3
siesta:           0.07065550        -11.31006772  kBar
(Free)E+ p_basis*V_orbitals  =     -374627.257898
(Free)Eharris+ p_basis*V_orbitals  =     -374627.269612

Optical: Performing optical calculation: 

Optical: Polarization type       = polarized   
Optical: Minimum of energy range =   0.0001 Ry 
Optical: Maximum of energy range =   7.3498 Ry 
Optical: Gaussian broadening     =   0.0037 Ry 
Optical: Scissor operator        =   0.0000 Ry 
Optical: Number of bands         =    13386
Optical: Number of electrons     =     5346
Optical: BZ mesh dimensions      =    1   1   1

Optical: electric field direction
Optical:      1.00000     0.00000     0.00000

Optical: Checking f-sum rule  0.880233
Optical: For insulators and closed shell systems
Optical: this number should be close to 1 if an enough
Optical: number of unoccupied bands have been included

* Maximum dynamic memory allocated : Node    0 =   307 MB
* Maximum dynamic memory allocated : Node    1 =   302 MB
* Maximum dynamic memory allocated : Node    2 =   300 MB
* Maximum dynamic memory allocated : Node    3 =   307 MB
* Maximum dynamic memory allocated : Node    4 =   306 MB
* Maximum dynamic memory allocated : Node    5 =   307 MB
* Maximum dynamic memory allocated : Node    6 =   304 MB
* Maximum dynamic memory allocated : Node    7 =   303 MB
* Maximum dynamic memory allocated : Node    8 =   301 MB
* Maximum dynamic memory allocated : Node    9 =   308 MB
* Maximum dynamic memory allocated : Node   10 =   302 MB
* Maximum dynamic memory allocated : Node   11 =   305 MB
* Maximum dynamic memory allocated : Node   12 =   306 MB
* Maximum dynamic memory allocated : Node   13 =   304 MB
* Maximum dynamic memory allocated : Node   14 =   302 MB
* Maximum dynamic memory allocated : Node   15 =   304 MB
* Maximum dynamic memory allocated : Node   16 =   308 MB
* Maximum dynamic memory allocated : Node   17 =   300 MB
* Maximum dynamic memory allocated : Node   18 =   306 MB
* Maximum dynamic memory allocated : Node   19 =   303 MB
* Maximum dynamic memory allocated : Node   20 =   304 MB
* Maximum dynamic memory allocated : Node   21 =   308 MB
* Maximum dynamic memory allocated : Node   22 =   303 MB
* Maximum dynamic memory allocated : Node   23 =   306 MB
* Maximum dynamic memory allocated : Node   24 =   304 MB
* Maximum dynamic memory allocated : Node   25 =   304 MB
* Maximum dynamic memory allocated : Node   26 =   310 MB
* Maximum dynamic memory allocated : Node   27 =   307 MB
* Maximum dynamic memory allocated : Node   28 =   309 MB
* Maximum dynamic memory allocated : Node   29 =   307 MB
* Maximum dynamic memory allocated : Node   30 =   307 MB
* Maximum dynamic memory allocated : Node   31 =   306 MB
* Maximum dynamic memory allocated : Node   32 =   307 MB
* Maximum dynamic memory allocated : Node   33 =   303 MB
* Maximum dynamic memory allocated : Node   34 =   306 MB
* Maximum dynamic memory allocated : Node   35 =   304 MB
* Maximum dynamic memory allocated : Node   36 =   303 MB
* Maximum dynamic memory allocated : Node   37 =   307 MB
* Maximum dynamic memory allocated : Node   38 =   305 MB
* Maximum dynamic memory allocated : Node   39 =   304 MB
* Maximum dynamic memory allocated : Node   40 =   308 MB
* Maximum dynamic memory allocated : Node   41 =   304 MB
* Maximum dynamic memory allocated : Node   42 =   308 MB
* Maximum dynamic memory allocated : Node   43 =   307 MB
* Maximum dynamic memory allocated : Node   44 =   305 MB
* Maximum dynamic memory allocated : Node   45 =   306 MB
* Maximum dynamic memory allocated : Node   46 =   296 MB
* Maximum dynamic memory allocated : Node   47 =   292 MB
* Maximum dynamic memory allocated : Node   48 =   294 MB
* Maximum dynamic memory allocated : Node   49 =   289 MB
* Maximum dynamic memory allocated : Node   50 =   291 MB
* Maximum dynamic memory allocated : Node   51 =   291 MB
* Maximum dynamic memory allocated : Node   52 =   291 MB
* Maximum dynamic memory allocated : Node   53 =   292 MB
* Maximum dynamic memory allocated : Node   54 =   289 MB
* Maximum dynamic memory allocated : Node   55 =   288 MB
* Maximum dynamic memory allocated : Node   56 =   291 MB
* Maximum dynamic memory allocated : Node   57 =   291 MB
* Maximum dynamic memory allocated : Node   58 =   293 MB
* Maximum dynamic memory allocated : Node   59 =   291 MB
* Maximum dynamic memory allocated : Node   60 =   291 MB
* Maximum dynamic memory allocated : Node   61 =   287 MB
* Maximum dynamic memory allocated : Node   62 =   292 MB
* Maximum dynamic memory allocated : Node   63 =   289 MB

* Maximum memory occured during rdiag                         

timer: CPU execution times:
timer:  Routine       Calls   Time/call    Tot.time        %
timer:  siesta            114587206.58014587206.580   100.00
timer:  Setup             1     102.939     102.939     0.00
timer:  bands             1       0.007       0.007     0.00
timer:  writewave         1       0.049       0.049     0.00
timer:  KSV_init          1       0.009       0.009     0.00
timer:  IterMD            1  176019.222  176019.222     1.21
timer:  hsparse           1      34.377      34.377     0.00
timer:  overlap           1     100.553     100.553     0.00
timer:  IterSCF          23    7554.936  173763.517     1.19
timer:  kinefsm           2      52.041     104.082     0.00
timer:  nlefsm            2     234.573     469.146     0.00
timer:  DHSCF            24    1028.917   24694.010     0.17
timer:  DHSCF1            1      44.483      44.483     0.00
timer:  DHSCF2            1    1107.266    1107.266     0.01
timer:  REORD           146       0.091      13.327     0.00
timer:  POISON           25      23.153     578.815     0.00
timer:  DHSCF3           24     959.475   23027.390     0.16
timer:  rhoofd           24     364.409    8745.813     0.06
timer:  cellXC           24      73.385    1761.234     0.01
timer:  vmat             24     426.941   10246.580     0.07
timer:  MolMec            2       0.109       0.219     0.00
timer:  diagon           23    5714.943  131443.680     0.90
timer:  r-eigvec         23    5565.821  128013.880     0.88
timer:  r-buildHS        23       0.941      21.646     0.00
timer:  rdiag            24    5567.802  133627.244     0.92
timer:  rdiag1           24     194.312    4663.488     0.03
timer:  rdiag2           24    1287.319   30895.665     0.21
timer:  rdiag3           24    3676.180   88228.328     0.60
timer:  rdiag4           24     380.933    9142.400     0.06
timer:  r-buildD         23     148.550    3416.661     0.02
timer:  DHSCF4            1     509.688     509.688     0.00
timer:  dfscf             1     449.994     449.994     0.00
timer:  overfsm           1       5.139       5.139     0.00
timer:  optical           114410928.91314410928.913    98.79
timer:  phirphiopt        1    1572.947    1572.947     0.01
timer:  transrate         114403364.09414403364.094    98.74
  

elaps: ELAPSED times:
elaps:  Routine       Calls   Time/call    Tot.time        %
elaps:  siesta            1   13776.162   13776.162   100.00
elaps:  Setup             1       1.625       1.625     0.01
elaps:  bands             1       0.000       0.000     0.00
elaps:  writewave         1       0.001       0.001     0.00
elaps:  KSV_init          1       0.000       0.000     0.00
elaps:  IterMD            1    2778.031    2778.031    20.17
elaps:  hsparse           1       0.524       0.524     0.00
elaps:  overlap           1       1.168       1.168     0.01
elaps:  IterSCF          23     119.203    2741.674    19.90
elaps:  kinefsm           2       0.610       1.221     0.01
elaps:  nlefsm            2       3.650       7.300     0.05
elaps:  DHSCF            24      16.121     386.902     2.81
elaps:  DHSCF1            1       0.646       0.646     0.00
elaps:  DHSCF2            1      17.415      17.415     0.13
elaps:  REORD           146       0.001       0.187     0.00
elaps:  POISON           25       0.371       9.272     0.07
elaps:  DHSCF3           24      15.031     360.739     2.62
elaps:  rhoofd           24       6.058     145.391     1.06
elaps:  cellXC           24       1.152      27.657     0.20
elaps:  vmat             24       6.686     160.472     1.16
elaps:  MolMec            2       0.002       0.003     0.00
elaps:  diagon           23      90.386    2078.877    15.09
elaps:  r-eigvec         23      88.018    2024.405    14.69
elaps:  r-buildHS        23       0.014       0.327     0.00
elaps:  rdiag            24      88.053    2113.280    15.34
elaps:  rdiag1           24       3.140      75.367     0.55
elaps:  rdiag2           24      20.572     493.733     3.58
elaps:  rdiag3           24      57.940    1390.560    10.09
elaps:  rdiag4           24       5.960     143.047     1.04
elaps:  r-buildD         23       2.360      54.279     0.39
elaps:  DHSCF4            1       8.026       8.026     0.06
elaps:  dfscf             1       7.117       7.117     0.05
elaps:  overfsm           1       0.077       0.077     0.00
elaps:  optical           1   10995.193   10995.193    79.81
elaps:  phirphiopt        1      24.440      24.440     0.18
elaps:  transrate         1   10874.574   10874.574    78.94
  
>> End of run:  24-OCT-2014  21:15:51
