Siesta Version:                                        siesta-3.1
Architecture  : x86_64-unknown-linux-gnu--Intel
Compiler flags: mpif90 -O3 -xSSSE3 -axSSE4.2,SSE4.1 -ip
PARALLEL version
NetCDF support

* Running on   64 nodes in parallel
>> Start of run:  26-MAR-2012   5:00:27

                           ***********************       
                           *  WELCOME TO SIESTA  *       
                           ***********************       

reinit: Reading from standard input
************************** Dump of input data file ****************************
SystemName      optical
SystemLabel     optical
NumberOfAtoms   1282
NumberOfSpecies 4
MD.TypeOfRun    CG
MD.NumCGsteps   0
MD.ConstantVolume  .true.
SolutionMethod  diagon
XC.functional   GGA
XC.authors      PBE
PAO.BasisSize   DZP
DM.NumberPulay  7
DM.MixingWeight 0.1
DirectPhi       .true.
SaveMemory      .true.
MeshCutoff      500 Ry
MaxSCFiterations 200
UseSaveData     .true.
WriteMullikenPop 1
OpticalCalculation      .true.
%block Optical.Mesh
 1 1 1
%endblock Optical.Mesh
Optical.PolarizationType  polarized
%block Optical.Vector
 0.0 1.0 0.0
%endblock Optical.Vector
Optical.Broaden         0.05 eV
Optical.EnergyMinimum   0.001 eV
Optical.EnergyMaximum   100.0 eV
%block ChemicalSpeciesLabel
 1   1   H
 2   6   C
 3   9   F
 4  47   Ag
%endblock ChemicalSpeciesLabel
LatticeConstant 1.0 Ang
%block LatticeParameters
  22.534   24.472   23.649   90.0 90.0 90.0
%endblock LatticeParameters
AtomicCoordinatesFormat Ang
%block AtomicCoordinatesAndAtomicSpecies < struct.coor
%endblock AtomicCoordinatesAndAtomicSpecies
************************** End of input data file *****************************

reinit: -----------------------------------------------------------------------
reinit: System Name: optical
reinit: -----------------------------------------------------------------------
reinit: System Label: optical                                                     
reinit: -----------------------------------------------------------------------

initatom: Reading input for the pseudopotentials and atomic orbitals ----------
 Species number:            1  Label: H Atomic number:           1
 Species number:            2  Label: C Atomic number:           6
 Species number:            3  Label: F Atomic number:           9
 Species number:            4  Label: Ag Atomic number:          47
Ground state valence configuration:   1s01
Reading pseudopotential information in formatted form from H.psf

Valence configuration for pseudopotential generation:
1s( 1.00) rc: 1.33
2p( 0.00) rc: 1.33
3d( 0.00) rc: 0.37
4f( 0.00) rc: 1.33
Ground state valence configuration:   2s02  2p02
Reading pseudopotential information in formatted form from C.psf

Valence configuration for pseudopotential generation:
2s( 2.00) rc: 1.56
2p( 2.00) rc: 1.56
3d( 0.00) rc: 1.56
4f( 0.00) rc: 1.56
Ground state valence configuration:   2s02  2p05
Reading pseudopotential information in formatted form from F.psf

Valence configuration for pseudopotential generation:
2s( 2.00) rc: 1.41
2p( 5.00) rc: 1.41
3d( 0.00) rc: 1.41
4f( 0.00) rc: 1.41
Ground state valence configuration:   5s01  4d10
Reading pseudopotential information in formatted form from Ag.psf

Valence configuration for pseudopotential generation:
5s( 1.00) rc: 2.52
5p( 0.00) rc: 2.72
4d(10.00) rc: 2.52
4f( 0.00) rc: 2.52
For H, standard SIESTA heuristics set lmxkb to 2
 (one more than the basis l, including polarization orbitals).
Use PS.lmax or PS.KBprojectors blocks to override.
For C, standard SIESTA heuristics set lmxkb to 3
 (one more than the basis l, including polarization orbitals).
Use PS.lmax or PS.KBprojectors blocks to override.
For F, standard SIESTA heuristics set lmxkb to 3
 (one more than the basis l, including polarization orbitals).
Use PS.lmax or PS.KBprojectors blocks to override.
For Ag, standard SIESTA heuristics set lmxkb to 3
 (one more than the basis l, including polarization orbitals).
Use PS.lmax or PS.KBprojectors blocks to override.

<basis_specs>
===============================================================================
H                    Z=   1    Mass=  1.0100        Charge= 0.17977+309
Lmxo=0 Lmxkb= 2    BasisType=split      Semic=F
L=0  Nsemic=0  Cnfigmx=1
          n=1  nzeta=2  polorb=1
            splnorm:   0.15000    
               vcte:    0.0000    
               rinn:    0.0000    
                rcs:    0.0000      0.0000    
            lambdas:    1.0000      1.0000    
-------------------------------------------------------------------------------
L=0  Nkbl=1  erefs: 0.17977+309
L=1  Nkbl=1  erefs: 0.17977+309
L=2  Nkbl=1  erefs: 0.17977+309
===============================================================================
</basis_specs>

atom: Called for H                     (Z =   1)

read_vps: Pseudopotential generation method:
read_vps: ATM 3.2.2 Troullier-Martins                       
Total valence charge:    1.00000

xc_check: Exchange-correlation functional:
xc_check: GGA Perdew, Burke & Ernzerhof 1996
V l=0 = -2*Zval/r beyond r=  1.2656
V l=1 = -2*Zval/r beyond r=  1.2498
V l=2 = -2*Zval/r beyond r=  0.3563
All V_l potentials equal beyond r=  1.2656
This should be close to max(r_c) in ps generation
All pots = -2*Zval/r beyond r=  1.2656

VLOCAL1: 99.0% of the norm of Vloc inside     27.100 Ry
VLOCAL1: 99.9% of the norm of Vloc inside     61.762 Ry
atom: Maximum radius for 4*pi*r*r*local-pseudopot. charge    1.48935
atom: Maximum radius for r*vlocal+2*Zval:    1.24984
GHOST: No ghost state for L =  0
GHOST: No ghost state for L =  1
GHOST: No ghost state for L =  2

KBgen: Kleinman-Bylander projectors: 
   l= 0   rc=  1.398961   el= -0.477209   Ekb= -2.001853   kbcos= -0.352188
   l= 1   rc=  1.470814   el=  0.001006   Ekb= -0.423408   kbcos= -0.024395
   l= 2   rc=  1.489346   el=  0.001895   Ekb= -0.481957   kbcos= -0.001574

KBgen: Total number of  Kleinman-Bylander projectors:    9
atom: -------------------------------------------------------------------------

atom: SANKEY-TYPE ORBITALS:
atom: Selected multiple-zeta basis: split     

SPLIT: Orbitals with angular momentum L= 0

SPLIT: Basis orbitals for state 1s

SPLIT: PAO cut-off radius determined from an
SPLIT: energy shift=  0.020000 Ry

   izeta = 1
                 lambda =    1.000000
                     rc =    4.708991
                 energy =   -0.457764
                kinetic =    0.979534
    potential(screened) =   -1.437298
       potential(ionic) =   -1.965615

   izeta = 2
                 rmatch =    3.759707
              splitnorm =    0.150000
                 energy =   -0.339003
                kinetic =    1.582546
    potential(screened) =   -1.921548
       potential(ionic) =   -2.471878

POLgen: Perturbative polarization orbital with L=  1

POLgen: Polarization orbital for state 1s

   izeta = 1
                     rc =    4.708991
                 energy =    0.764951
                kinetic =    1.476882
    potential(screened) =   -0.711931
       potential(ionic) =   -1.204335
atom: Total number of Sankey-type orbitals:  5

atm_pop: Valence configuration (for local Pseudopot. screening):
 1s( 1.00)                                                            
Vna: chval, zval:    1.00000   1.00000

Vna:  Cut-off radius for the neutral-atom potential:   4.708991

atom: _________________________________________________________________________

<basis_specs>
===============================================================================
C                    Z=   6    Mass=  12.010        Charge= 0.17977+309
Lmxo=1 Lmxkb= 3    BasisType=split      Semic=F
L=0  Nsemic=0  Cnfigmx=2
          n=1  nzeta=2  polorb=0
            splnorm:   0.15000    
               vcte:    0.0000    
               rinn:    0.0000    
                rcs:    0.0000      0.0000    
            lambdas:    1.0000      1.0000    
L=1  Nsemic=0  Cnfigmx=2
          n=1  nzeta=2  polorb=1
            splnorm:   0.15000    
               vcte:    0.0000    
               rinn:    0.0000    
                rcs:    0.0000      0.0000    
            lambdas:    1.0000      1.0000    
-------------------------------------------------------------------------------
L=0  Nkbl=1  erefs: 0.17977+309
L=1  Nkbl=1  erefs: 0.17977+309
L=2  Nkbl=1  erefs: 0.17977+309
L=3  Nkbl=1  erefs: 0.17977+309
===============================================================================
</basis_specs>

atom: Called for C                     (Z =   6)

read_vps: Pseudopotential generation method:
read_vps: ATM 3.2.2 Troullier-Martins                       
Total valence charge:    4.00000

xc_check: Exchange-correlation functional:
xc_check: GGA Perdew, Burke & Ernzerhof 1996
V l=0 = -2*Zval/r beyond r=  1.5227
V l=1 = -2*Zval/r beyond r=  1.5227
V l=2 = -2*Zval/r beyond r=  1.5227
V l=3 = -2*Zval/r beyond r=  1.5227
All V_l potentials equal beyond r=  1.4851
This should be close to max(r_c) in ps generation
All pots = -2*Zval/r beyond r=  1.5227

VLOCAL1: 99.0% of the norm of Vloc inside     19.682 Ry
VLOCAL1: 99.9% of the norm of Vloc inside     44.856 Ry
atom: Maximum radius for 4*pi*r*r*local-pseudopot. charge    1.79142
atom: Maximum radius for r*vlocal+2*Zval:    1.54183
GHOST: No ghost state for L =  0
GHOST: No ghost state for L =  1
GHOST: No ghost state for L =  2
GHOST: No ghost state for L =  3

KBgen: Kleinman-Bylander projectors: 
   l= 0   rc=  1.661951   el= -1.010689   Ekb=  5.289847   kbcos=  0.316429
   l= 1   rc=  1.661951   el= -0.388490   Ekb= -4.102504   kbcos= -0.351025
   l= 2   rc=  1.747182   el=  0.001971   Ekb= -1.006005   kbcos= -0.008530
   l= 3   rc=  1.791422   el=  0.003065   Ekb= -0.421399   kbcos= -0.001072

KBgen: Total number of  Kleinman-Bylander projectors:   16
atom: -------------------------------------------------------------------------

atom: SANKEY-TYPE ORBITALS:
atom: Selected multiple-zeta basis: split     

SPLIT: Orbitals with angular momentum L= 0

SPLIT: Basis orbitals for state 2s

SPLIT: PAO cut-off radius determined from an
SPLIT: energy shift=  0.020000 Ry

   izeta = 1
                 lambda =    1.000000
                     rc =    4.088342
                 energy =   -0.990050
                kinetic =    0.909804
    potential(screened) =   -1.899854
       potential(ionic) =   -5.513925

   izeta = 2
                 rmatch =    3.347176
              splitnorm =    0.150000
                 energy =   -0.836186
                kinetic =    1.375045
    potential(screened) =   -2.211230
       potential(ionic) =   -6.057915

SPLIT: Orbitals with angular momentum L= 1

SPLIT: Basis orbitals for state 2p

SPLIT: PAO cut-off radius determined from an
SPLIT: energy shift=  0.020000 Ry

   izeta = 1
                 lambda =    1.000000
                     rc =    4.870301
                 energy =   -0.368677
                kinetic =    2.532104
    potential(screened) =   -2.900781
       potential(ionic) =   -6.401132

   izeta = 2
                 rmatch =    3.475094
              splitnorm =    0.150000
                 energy =   -0.205777
                kinetic =    3.787472
    potential(screened) =   -3.993249
       potential(ionic) =   -7.860448

POLgen: Perturbative polarization orbital with L=  2

POLgen: Polarization orbital for state 2p

   izeta = 1
                     rc =    4.870301
                 energy =    1.296521
                kinetic =    2.641128
    potential(screened) =   -1.344607
       potential(ionic) =   -4.300412
atom: Total number of Sankey-type orbitals: 13

atm_pop: Valence configuration (for local Pseudopot. screening):
 2s( 2.00)                                                            
 2p( 2.00)                                                            
Vna: chval, zval:    4.00000   4.00000

Vna:  Cut-off radius for the neutral-atom potential:   4.870301

atom: _________________________________________________________________________

<basis_specs>
===============================================================================
F                    Z=   9    Mass=  19.000        Charge= 0.17977+309
Lmxo=1 Lmxkb= 3    BasisType=split      Semic=F
L=0  Nsemic=0  Cnfigmx=2
          n=1  nzeta=2  polorb=0
            splnorm:   0.15000    
               vcte:    0.0000    
               rinn:    0.0000    
                rcs:    0.0000      0.0000    
            lambdas:    1.0000      1.0000    
L=1  Nsemic=0  Cnfigmx=2
          n=1  nzeta=2  polorb=1
            splnorm:   0.15000    
               vcte:    0.0000    
               rinn:    0.0000    
                rcs:    0.0000      0.0000    
            lambdas:    1.0000      1.0000    
-------------------------------------------------------------------------------
L=0  Nkbl=1  erefs: 0.17977+309
L=1  Nkbl=1  erefs: 0.17977+309
L=2  Nkbl=1  erefs: 0.17977+309
L=3  Nkbl=1  erefs: 0.17977+309
===============================================================================
</basis_specs>

atom: Called for F                     (Z =   9)

read_vps: Pseudopotential generation method:
read_vps: ATM 3.2.2 Troullier-Martins                       
Total valence charge:    7.00000

xc_check: Exchange-correlation functional:
xc_check: GGA Perdew, Burke & Ernzerhof 1996
V l=0 = -2*Zval/r beyond r=  1.3199
V l=1 = -2*Zval/r beyond r=  1.3199
V l=2 = -2*Zval/r beyond r=  1.3199
V l=3 = -2*Zval/r beyond r=  1.3199
All V_l potentials equal beyond r=  1.3199
This should be close to max(r_c) in ps generation
All pots = -2*Zval/r beyond r=  1.3199

VLOCAL1: 99.0% of the norm of Vloc inside     24.916 Ry
VLOCAL1: 99.9% of the norm of Vloc inside     56.784 Ry
atom: Maximum radius for 4*pi*r*r*local-pseudopot. charge    1.61221
atom: Maximum radius for r*vlocal+2*Zval:    1.38760
GHOST: No ghost state for L =  0
GHOST: No ghost state for L =  1
GHOST: No ghost state for L =  2
GHOST: No ghost state for L =  3

KBgen: Kleinman-Bylander projectors: 
   l= 0   rc=  1.495695   el= -2.197581   Ekb=  5.601452   kbcos=  0.238748
   l= 1   rc=  1.458760   el= -0.816694   Ekb= -9.171639   kbcos= -0.518972
   l= 2   rc=  1.552860   el=  0.001997   Ekb= -1.845583   kbcos= -0.004774
   l= 3   rc=  1.592177   el=  0.003102   Ekb= -0.701684   kbcos= -0.000616

KBgen: Total number of  Kleinman-Bylander projectors:   16
atom: -------------------------------------------------------------------------

atom: SANKEY-TYPE ORBITALS:
atom: Selected multiple-zeta basis: split     

SPLIT: Orbitals with angular momentum L= 0

SPLIT: Basis orbitals for state 2s

SPLIT: PAO cut-off radius determined from an
SPLIT: energy shift=  0.020000 Ry

   izeta = 1
                 lambda =    1.000000
                     rc =    3.012240
                 energy =   -2.180114
                kinetic =    2.050927
    potential(screened) =   -4.231041
       potential(ionic) =  -15.028689

   izeta = 2
                 rmatch =    2.203728
              splitnorm =    0.150000
                 energy =   -1.860487
                kinetic =    3.102500
    potential(screened) =   -4.962987
       potential(ionic) =  -16.601125

SPLIT: Orbitals with angular momentum L= 1

SPLIT: Basis orbitals for state 2p

SPLIT: PAO cut-off radius determined from an
SPLIT: energy shift=  0.020000 Ry

   izeta = 1
                 lambda =    1.000000
                     rc =    3.588372
                 energy =   -0.798309
                kinetic =    6.054328
    potential(screened) =   -6.852638
       potential(ionic) =  -17.288549

   izeta = 2
                 rmatch =    2.259523
              splitnorm =    0.150000
                 energy =   -0.439465
                kinetic =    8.943362
    potential(screened) =   -9.382827
       potential(ionic) =  -20.998650

POLgen: Perturbative polarization orbital with L=  2

POLgen: Polarization orbital for state 2p

   izeta = 1
                     rc =    3.588372
                 energy =    3.121679
                kinetic =    6.160101
    potential(screened) =   -3.038422
       potential(ionic) =  -11.529161
atom: Total number of Sankey-type orbitals: 13

atm_pop: Valence configuration (for local Pseudopot. screening):
 2s( 2.00)                                                            
 2p( 5.00)                                                            
Vna: chval, zval:    7.00000   7.00000

Vna:  Cut-off radius for the neutral-atom potential:   3.588372

atom: _________________________________________________________________________

<basis_specs>
===============================================================================
Ag                   Z=  47    Mass=  107.87        Charge= 0.17977+309
Lmxo=2 Lmxkb= 3    BasisType=split      Semic=F
L=0  Nsemic=0  Cnfigmx=5
          n=1  nzeta=2  polorb=1
            splnorm:   0.15000    
               vcte:    0.0000    
               rinn:    0.0000    
                rcs:    0.0000      0.0000    
            lambdas:    1.0000      1.0000    
L=1  Nsemic=0  Cnfigmx=5
L=2  Nsemic=0  Cnfigmx=4
          n=1  nzeta=2  polorb=0
            splnorm:   0.15000    
               vcte:    0.0000    
               rinn:    0.0000    
                rcs:    0.0000      0.0000    
            lambdas:    1.0000      1.0000    
-------------------------------------------------------------------------------
L=0  Nkbl=1  erefs: 0.17977+309
L=1  Nkbl=1  erefs: 0.17977+309
L=2  Nkbl=1  erefs: 0.17977+309
L=3  Nkbl=1  erefs: 0.17977+309
===============================================================================
</basis_specs>

atom: Called for Ag                    (Z =  47)

read_vps: Pseudopotential generation method:
read_vps: ATM 3.2.2 Troullier-Martins                       
Total valence charge:   11.00000

xc_check: Exchange-correlation functional:
xc_check: GGA Perdew, Burke & Ernzerhof 1996
V l=0 = -2*Zval/r beyond r=  2.4592
V l=1 = -2*Zval/r beyond r=  2.6507
V l=2 = -2*Zval/r beyond r=  2.4592
V l=3 = -2*Zval/r beyond r=  2.4592
All V_l potentials equal beyond r=  2.6507
This should be close to max(r_c) in ps generation
All pots = -2*Zval/r beyond r=  2.6507

VLOCAL1: 99.0% of the norm of Vloc inside      6.178 Ry
VLOCAL1: 99.9% of the norm of Vloc inside     14.079 Ry
atom: Maximum radius for 4*pi*r*r*local-pseudopot. charge    3.19739
atom: Maximum radius for r*vlocal+2*Zval:    2.82168
GHOST: No ghost state for L =  0
GHOST: No ghost state for L =  1
GHOST: No ghost state for L =  2
GHOST: No ghost state for L =  3

KBgen: Kleinman-Bylander projectors: 
   l= 0   rc=  2.966357   el= -0.323666   Ekb=  3.565490   kbcos=  0.247453
   l= 1   rc=  3.003670   el= -0.054265   Ekb=  1.619308   kbcos=  0.223076
   l= 2   rc=  2.786631   el= -0.547066   Ekb= -7.840816   kbcos= -0.714112
   l= 3   rc=  3.079709   el=  0.002953   Ekb= -2.732950   kbcos= -0.012571

KBgen: Total number of  Kleinman-Bylander projectors:   16
atom: -------------------------------------------------------------------------

atom: SANKEY-TYPE ORBITALS:
atom: Selected multiple-zeta basis: split     

SPLIT: Orbitals with angular momentum L= 0

SPLIT: Basis orbitals for state 5s

SPLIT: PAO cut-off radius determined from an
SPLIT: energy shift=  0.020000 Ry

   izeta = 1
                 lambda =    1.000000
                     rc =    6.684855
                 energy =   -0.305483
                kinetic =    0.327133
    potential(screened) =   -0.632616
       potential(ionic) =   -8.088030

   izeta = 2
                 rmatch =    6.279837
              splitnorm =    0.150000
                 energy =   -0.253539
                kinetic =    0.499634
    potential(screened) =   -0.753173
       potential(ionic) =   -8.691029

SPLIT: Orbitals with angular momentum L= 2

SPLIT: Basis orbitals for state 4d

SPLIT: PAO cut-off radius determined from an
SPLIT: energy shift=  0.020000 Ry

   izeta = 1
                 lambda =    1.000000
                     rc =    3.954440
                 energy =   -0.527442
                kinetic =    6.210364
    potential(screened) =   -6.737807
       potential(ionic) =  -18.733043

   izeta = 2
                 rmatch =    2.490121
              splitnorm =    0.150000
                 energy =   -0.148928
                kinetic =    8.576261
    potential(screened) =   -8.725189
       potential(ionic) =  -21.658221

POLgen: Perturbative polarization orbital with L=  1

POLgen: Polarization orbital for state 5s

   izeta = 1
                     rc =    6.684855
                 energy =   -0.001728
                kinetic =    0.597115
    potential(screened) =   -0.598843
       potential(ionic) =   -7.554613
atom: Total number of Sankey-type orbitals: 15

atm_pop: Valence configuration (for local Pseudopot. screening):
 5s( 1.00)                                                            
 5p( 0.00)                                                            
 4d(10.00)                                                            
Vna: chval, zval:   11.00000  11.00000

Vna:  Cut-off radius for the neutral-atom potential:   6.684855

atom: _________________________________________________________________________

prinput: Basis input ----------------------------------------------------------

PAO.BasisType split     

%block ChemicalSpeciesLabel
    1    1 H                       # Species index, atomic number, species label
    2    6 C                       # Species index, atomic number, species label
    3    9 F                       # Species index, atomic number, species label
    4   47 Ag                      # Species index, atomic number, species label
%endblock ChemicalSpeciesLabel

%block PAO.Basis                 # Define Basis set
H                     1                    # Species label, number of l-shells
 n=1   0   2 P   1                   # n, l, Nzeta, Polarization, NzetaPol
   4.709      3.760   
   1.000      1.000   
C                     2                    # Species label, number of l-shells
 n=2   0   2                         # n, l, Nzeta 
   4.088      3.347   
   1.000      1.000   
 n=2   1   2 P   1                   # n, l, Nzeta, Polarization, NzetaPol
   4.870      3.475   
   1.000      1.000   
F                     2                    # Species label, number of l-shells
 n=2   0   2                         # n, l, Nzeta 
   3.012      2.204   
   1.000      1.000   
 n=2   1   2 P   1                   # n, l, Nzeta, Polarization, NzetaPol
   3.588      2.260   
   1.000      1.000   
Ag                    2                    # Species label, number of l-shells
 n=5   0   2 P   1                   # n, l, Nzeta, Polarization, NzetaPol
   6.685      6.280   
   1.000      1.000   
 n=4   2   2                         # n, l, Nzeta 
   3.954      2.490   
   1.000      1.000   
%endblock PAO.Basis

prinput: ----------------------------------------------------------------------

Dumping basis to NetCDF file H.ion.nc
Dumping basis to NetCDF file C.ion.nc
Dumping basis to NetCDF file F.ion.nc
Dumping basis to NetCDF file Ag.ion.nc
coor:   Atomic-coordinates input format  =     Cartesian coordinates
coor:                                          (in Angstroms)

siesta: WARNING: XV file not found

siesta: Atomic coordinates (Bohr) and species
siesta:     17.19840  32.21417  30.22429  2        1
siesta:     18.06768  33.99430  29.72351  1        2
siesta:     16.62015  31.25608  28.50653  1        3
siesta:     18.53822  31.05577  31.26931  1        4
siesta:     14.86459  32.66393  31.87402  2        5
siesta:     13.37738  34.30421  30.59846  3        6
siesta:     13.55690  30.44728  31.74741  3        7
siesta:     15.07435  33.49919  34.66893  2        8
siesta:     13.60414  34.93538  34.92404  1        9
siesta:     14.60570  31.87969  35.82355  1       10
siesta:     17.54611  34.63680  35.71206  2       11
siesta:     19.34891  32.80188  35.71584  3       12
siesta:     18.40594  36.31488  33.97729  3       13
siesta:     17.52155  36.05032  38.29532  2       14
siesta:     18.93506  37.54131  38.16681  1       15
siesta:     15.65639  36.92904  38.47106  1       16
siesta:     18.05256  34.75397  40.87101  2       17
siesta:     19.22230  36.54921  42.32043  3       18
siesta:     15.80946  34.38169  42.03131  3       19
siesta:     19.68151  32.33512  41.16770  2       20
siesta:     21.37470  32.62613  40.06221  1       21
siesta:     20.24842  32.28598  43.11790  1       22
siesta:     18.57413  29.70084  40.57622  2       23
siesta:     18.40783  28.41582  42.79664  3       24
siesta:     16.14772  29.97485  39.80899  3       25
siesta:     19.89315  27.91505  38.67704  2       26
siesta:     18.45318  27.36891  37.27864  1       27
siesta:     21.36147  29.00542  37.71706  1       28
siesta:     21.10636  25.42061  39.55954  2       29
siesta:     19.16183  23.82946  40.09245  3       30
siesta:     22.28177  24.34913  37.52809  3       31
siesta:     23.00365  25.31667  41.76863  2       32
siesta:     21.89816  25.28455  43.51663  1       33
siesta:     23.95796  23.50064  41.55509  1       34
siesta:     25.10502  27.30655  42.06343  2       35
siesta:     25.57934  28.37047  39.76174  3       36
siesta:     24.11480  29.25108  43.43159  3       37
siesta:     27.65804  26.61680  43.31632  2       38
siesta:     27.99063  27.93961  44.85834  1       39
siesta:     27.46529  24.75353  44.17237  1       40
siesta:     30.12603  26.60169  41.74407  2       41
siesta:     30.69672  29.06211  41.20360  3       42
siesta:     31.99308  25.81556  43.31632  3       43
siesta:     30.39059  25.13337  39.25719  2       44
siesta:     29.14904  26.05177  37.89847  1       45
siesta:     32.32378  25.48675  38.67326  1       46
siesta:     29.93138  22.25153  39.01530  2       47
siesta:     32.09512  21.02321  39.73340  3       48
siesta:     28.20984  21.56178  40.81810  3       49
siesta:     29.03943  21.05723  36.50952  2       50
siesta:     28.95251  19.01821  36.77975  1       51
siesta:     27.08168  21.65438  36.24307  1       52
siesta:     30.45862  21.66005  34.03209  2       53
siesta:     28.99219  20.77566  32.09134  3       54
siesta:     30.46429  24.21685  33.71651  3       55
siesta:     33.18738  20.66227  33.58612  2       56
siesta:     33.91871  19.99142  35.38136  1       57
siesta:     33.03810  19.07301  32.30677  1       58
siesta:     35.26986  22.36681  32.48252  2       59
siesta:     35.68182  24.25087  34.16815  3       60
siesta:     37.43360  20.99487  32.52409  3       61
siesta:     34.93349  23.49308  29.81044  2       62
siesta:     34.65759  21.93028  28.48385  1       63
siesta:     33.17605  24.58724  29.80666  1       64
siesta:     36.97629  25.21841  28.61424  2       65
siesta:     35.98418  26.18972  26.47129  3       66
siesta:     37.30510  27.28010  30.10713  3       67
siesta:     39.60112  24.17717  27.87914  2       68
siesta:     39.26097  22.28555  27.13459  1       69
siesta:     40.28520  25.32612  26.32201  1       70
siesta:     41.81210  23.89749  29.76131  2       71
siesta:     41.95761  21.41061  30.36602  3       72
siesta:     43.95694  24.32267  28.42527  3       73
siesta:     42.03886  25.42628  32.26709  2       74
siesta:     42.71728  27.31033  31.74741  1       75
siesta:     40.17559  25.60769  33.11935  1       76
siesta:     43.82655  24.42283  34.38547  2       77
siesta:     46.08855  23.86914  33.32722  3       78
siesta:     44.36323  26.40704  35.91993  3       79
siesta:     42.98751  22.11358  35.93127  2       80
siesta:     40.94093  21.97941  35.74796  1       81
siesta:     43.78308  20.46952  34.98451  1       82
siesta:     43.57710  21.84335  38.76964  2       83
siesta:     46.04131  22.50476  39.19671  3       84
siesta:     42.23540  23.64426  40.02819  3       85
siesta:     43.15002  19.29033  40.11323  2       86
siesta:     44.53141  17.98453  39.35167  1       87
siesta:     43.59789  19.57379  42.12012  1       88
siesta:     40.57622  17.93729  39.96394  2       89
siesta:     40.15103  17.42517  37.47517  3       90
siesta:     40.80109  15.64127  41.09778  3       91
siesta:     38.14036  19.19963  41.03920  2       92
siesta:     38.18004  21.17817  40.44582  1       93
siesta:     36.52653  18.29256  40.11134  1       94
siesta:     37.55832  19.17317  43.90591  2       95
siesta:     36.41693  16.92628  44.45394  3       96
siesta:     39.79954  19.05034  45.20983  3       97
siesta:     35.96717  21.31045  45.10022  2       98
siesta:     37.27297  22.79200  45.70682  1       99
siesta:     34.75964  22.12681  43.65080  1      100
siesta:     34.24563  20.74731  47.40380  2      101
siesta:     33.15904  22.95829  48.11245  3      102
siesta:     32.26520  19.35836  46.52130  3      103
siesta:     35.31333  19.56056  49.83399  2      104
siesta:     37.31266  19.23364  49.48817  1      105
siesta:     35.15459  20.93817  51.35522  1      106
siesta:     34.19461  17.05479  50.87712  2      107
siesta:     34.33445  15.26899  49.01007  3      108
siesta:     35.81599  16.22519  52.66102  3      109
siesta:     31.49419  16.98109  51.96371  2      110
siesta:     30.92538  18.91617  52.36622  1      111
siesta:     30.27720  16.27433  50.44626  1      112
siesta:     30.81011  15.38805  54.31075  2      113
siesta:     28.40826  14.48287  53.95548  3      114
siesta:     32.30299  13.28289  54.34855  3      115
siesta:     30.82145  16.52944  56.96204  2      116
siesta:     29.50620  18.08847  57.00550  1      117
siesta:     30.09012  15.09325  58.24327  1      118
siesta:     33.32155  17.50643  58.09587  2      119
siesta:     34.26831  19.32813  56.51795  3      120
siesta:     32.74897  18.82168  60.21615  3      121
siesta:     35.47773  15.66962  58.80641  2      122
siesta:     35.73096  14.42806  57.20203  1      123
siesta:     37.18794  16.83936  58.97082  1      124
siesta:     35.25663  14.02366  61.19692  2      125
siesta:     36.15425  15.39938  63.15656  3      126
siesta:     32.75086  13.78556  61.74683  3      127
siesta:     36.42827  11.35537  61.38589  2      128
siesta:     37.39203  11.25143  63.20192  1      129
siesta:     34.88058   9.98343  61.45581  1      130
siesta:     38.28398  10.34814  59.37522  2      131
siesta:     39.82788  12.28322  58.58720  3      132
siesta:     39.86190   8.75510  60.66023  3      133
siesta:     37.38825   8.94786  56.95448  2      134
siesta:     36.53598  10.30657  55.65624  1      135
siesta:     39.08144   8.22220  56.04930  1      136
siesta:     35.60623   6.62349  57.09999  2      137
siesta:     33.30455   7.40395  57.96926  3      138
siesta:     35.16026   5.94886  54.63956  3      139
siesta:     36.33378   4.20275  58.57019  2      140
siesta:     36.74007   4.79613  60.50339  1      141
siesta:     34.63302   3.01033  58.64956  1      142
siesta:     38.53153   2.52090  57.68958  2      143
siesta:     40.72739   3.47143  58.64956  3      144
siesta:     38.28587   0.27401  58.85554  3      145
siesta:     38.99829   1.92563  54.88334  2      146
siesta:     39.36490   3.69631  53.93469  1      147
siesta:     40.75007   0.83148  54.83987  1      148
siesta:     37.02353   0.48755  53.33376  2      149
siesta:     37.56021  -2.01823  53.53974  3      150
siesta:     34.74830   0.78046  54.46571  3      151
siesta:     36.74574   1.09037  50.50295  2      152
siesta:     35.60056   2.80246  50.35366  1      153
siesta:     38.62035   1.48910  49.74706  1      154
siesta:     35.51931  -0.82392  48.69259  2      155
siesta:     35.12246   0.41763  46.49862  3      156
siesta:     37.32022  -2.57948  48.11245  3      157
siesta:     33.12880  -2.27145  49.45604  2      158
siesta:     33.72974  -4.10638  50.15335  1      159
siesta:     32.30488  -1.17163  51.01885  1      160
siesta:     31.02365  -2.86105  47.57387  2      161
siesta:     32.07244  -3.31458  45.30431  3      162
siesta:     29.96729  -5.11360  48.23717  3      163
siesta:     28.78621  -1.00533  47.22616  2      164
siesta:     27.45017  -1.89162  45.97328  1      165
siesta:     27.90182  -0.84282  49.10455  1      166
siesta:     29.25108   1.71398  46.25484  2      167
siesta:     27.03254   3.01411  46.42681  3      168
siesta:     30.73641   2.83270  48.04253  3      169
siesta:     30.44161   2.28657  43.64513  2      170
siesta:     31.37514   4.11205  43.79442  1      171
siesta:     31.87591   0.86361  43.23884  1      172
siesta:     28.77109   2.49255  41.27164  2      173
siesta:     26.45051   1.52312  41.82532  3      174
siesta:     28.38181   4.99077  40.88991  3      175
siesta:     29.64604   1.37761  38.73184  2      176
siesta:     28.17205   1.86705  37.37502  1      177
siesta:     31.34490   2.38484  38.16114  1      178
siesta:     30.23185  -1.44942  38.38980  2      179
siesta:     30.65704  -1.78579  35.85946  3      180
siesta:     32.49385  -1.91618  39.50285  3      181
siesta:     28.34590  -3.51489  39.26286  2      182
siesta:     27.75442  -3.05569  41.17526  1      183
siesta:     26.67538  -3.36749  38.04965  1      184
siesta:     29.10746  -6.33814  39.28364  2      185
siesta:     30.14870  -6.92018  37.01219  3      186
siesta:     31.04443  -6.66318  40.95983  3      187
siesta:     27.12703  -8.36960  39.89969  2      188
siesta:     25.28077  -7.52867  39.56710  1      189
siesta:     27.37836  -9.87193  38.51263  1      190
siesta:     27.04766  -9.63194  42.54531  2      191
siesta:     27.24986  -7.78945  44.30465  3      192
siesta:     24.65905 -10.53334  42.85145  3      193
siesta:     28.91849 -11.78245  43.18215  2      194
siesta:     27.77332 -13.49832  43.33900  1      195
siesta:     30.13925 -12.06024  41.54942  1      196
siesta:     30.63814 -11.71253  45.53864  2      197
siesta:     29.12825 -11.41584  47.59655  3      198
siesta:     31.59434 -14.08413  45.86367  3      199
siesta:     32.86235  -9.81146  45.70682  2      200
siesta:     32.12725  -7.97276  45.13613  1      201
siesta:     33.45950  -9.69997  47.67214  1      202
siesta:     35.25285 -10.22720  44.12323  2      203
siesta:     36.26197 -12.51944  44.69771  3      204
siesta:     34.50452 -10.45397  41.67982  3      205
siesta:     37.45628  -8.28834  44.26496  2      206
siesta:     36.82511  -6.81624  45.56698  1      207
siesta:     39.07010  -9.26911  45.14935  1      208
siesta:     38.51830  -6.97687  41.86879  2      209
siesta:     40.99951  -6.57436  42.28075  3      210
siesta:     38.52208  -8.65684  39.91859  3      211
siesta:     37.33911  -4.48621  40.86723  2      212
siesta:     36.43771  -4.94919  39.05688  1      213
siesta:     35.80466  -3.99866  42.18815  1      214
siesta:     38.97940  -2.08248  40.50819  2      215
siesta:     37.56399  -0.43464  39.12491  3      216
siesta:     39.13435  -0.92219  42.79475  3      217
siesta:     41.67226  -2.09004  39.31577  2      218
siesta:     42.27697  -0.13228  39.16459  1      219
siesta:     42.92137  -3.05947  40.66881  1      220
siesta:     42.13146  -3.29379  36.67582  2      221
siesta:     40.45716  -5.21376  36.34134  3      222
siesta:     41.45872  -1.47966  34.99774  3      223
siesta:     44.75818  -4.25944  35.91048  2      224
siesta:     45.15502  -3.42419  34.06422  1      225
siesta:     46.12823  -3.46765  37.22951  1      226
siesta:     45.27975  -7.12616  35.63080  2      227
siesta:     43.71505  -8.02567  33.80343  3      228
siesta:     47.60978  -7.44552  34.58389  3      229
siesta:     45.19471  -8.93841  37.91548  2      230
siesta:     43.53364  -8.49243  38.98318  1      231
siesta:     44.92637 -10.84703  37.15392  1      232
siesta:     47.43592  -9.06313  39.76552  2      233
siesta:     48.14079  -6.67263  40.32866  3      234
siesta:     46.52130  -9.97398  41.98595  3      235
siesta:     49.82643 -10.56735  39.09278  2      236
siesta:     49.19526 -12.45330  38.50130  1      237
siesta:     50.66169  -9.68863  37.41848  1      238
siesta:     51.96560 -10.98120  41.06565  2      239
siesta:     51.28341 -12.97864  42.52830  3      240
siesta:     53.99895 -11.89583  39.80143  3      241
siesta:     52.85755  -8.84959  42.84011  2      242
siesta:     51.17380  -8.24299  43.85111  1      243
siesta:     54.12556  -9.76422  44.18559  1      244
siesta:     54.18603  -6.46287  41.80454  2      245
siesta:     56.67480  -6.59326  42.48673  3      246
siesta:     54.24461  -6.57247  39.25152  3      247
siesta:     53.26384  -3.78890  42.51319  2      248
siesta:     53.88934  -2.48877  41.02030  1      249
siesta:     51.19459  -3.80780  42.53586  1      250
siesta:     54.08587  -2.54924  45.03975  2      251
siesta:     56.42913  -1.55525  44.67503  3      252
siesta:     52.54953  -0.49889  45.40258  3      253
siesta:     54.11422  -4.09504  47.55309  2      254
siesta:     52.20748  -4.83203  47.86111  1      255
siesta:     55.37656  -5.70886  47.24695  1      256
siesta:     54.97215  -2.90073  50.07398  2      257
siesta:     55.05908  -4.77723  51.81631  3      258
siesta:     57.41557  -2.20531  49.78296  3      259
siesta:     53.58321  -0.65762  51.29664  2      260
siesta:     54.98349   0.41385  52.39646  1      261
siesta:     52.91235   0.56503  49.76596  1      262
siesta:     51.32120  -1.14895  53.05975  2      263
siesta:     49.95682   1.03557  53.14857  3      264
siesta:     49.76785  -2.81191  51.85411  3      265
siesta:     51.76151  -2.06169  55.79230  2      266
siesta:     51.40624  -4.08748  55.79608  1      267
siesta:     53.75706  -1.82170  56.19103  1      268
siesta:     50.34232  -0.88439  58.05241  2      269
siesta:     51.57821  -1.74611  60.12355  3      270
siesta:     50.78263   1.65729  58.07887  3      271
siesta:     47.48128  -1.30013  58.62311  2      272
siesta:     47.33577  -2.18452  60.46370  1      273
siesta:     46.59689   0.56881  58.80263  1      274
siesta:     45.74084  -2.85349  56.87322  2      275
siesta:     45.51785  -1.55147  54.68870  3      276
siesta:     46.90869  -5.02289  56.19292  3      277
siesta:     43.01585  -3.52245  57.73116  2      278
siesta:     42.33555  -1.95020  58.87255  1      279
siesta:     41.84989  -3.59237  56.03229  1      280
siesta:     42.46216  -5.99988  59.16168  2      281
siesta:     41.63068  -7.71387  57.44203  3      282
siesta:     44.67881  -6.98443  60.05174  3      283
siesta:     40.53653  -5.99988  61.38211  2      284
siesta:     38.87735  -4.96053  60.70370  1      285
siesta:     39.98095  -7.96898  61.69580  1      286
siesta:     41.29431  -4.84904  63.95970  2      287
siesta:     42.12201  -6.81058  65.39211  3      288
siesta:     43.32199  -3.34104  63.62332  3      289
siesta:     39.32711  -3.33726  65.49226  2      290
siesta:     39.61434  -1.34549  65.05196  1      291
siesta:     37.45628  -3.83804  64.78551  1      292
siesta:     39.17782  -3.61127  68.40055  2      293
siesta:     37.40336  -1.91240  69.13944  3      294
siesta:     38.16870  -5.92051  68.92968  3      295
siesta:     41.55509  -3.18419  70.06729  2      296
siesta:     42.78153  -4.82825  69.77061  1      297
siesta:     42.57933  -1.58926  69.29628  1      298
siesta:     41.36045  -2.75711  72.94157  2      299
siesta:     40.13969  -4.77156  73.98470  3      300
siesta:     43.75285  -2.94042  73.84297  3      301
siesta:     40.31921  -0.24377  74.04328  2      302
siesta:     41.67604   0.32125  75.47002  1      303
siesta:     40.40992   1.16785  72.52772  1      304
siesta:     37.68304   0.00945  75.26593  2      305
siesta:     37.84178   2.04657  76.84007  3      306
siesta:     36.06544   0.74077  73.41022  3      307
siesta:     36.38102  -2.11082  76.78527  2      308
siesta:     37.84934  -3.36371  77.53360  1      309
siesta:     35.44939  -1.16218  78.38776  1      310
siesta:     34.35146  -3.77945  75.51160  2      311
siesta:     32.23874  -2.34515  75.23570  3      312
siesta:     35.09223  -4.25566  73.10030  3      313
siesta:     33.49730  -6.27389  76.79283  2      314
siesta:     33.43494  -5.91673  78.82429  1      315
siesta:     31.55088  -6.62916  76.19001  1      316
siesta:     34.91081  -8.80235  76.39410  2      317
siesta:     33.10424 -10.62027  76.58874  3      318
siesta:     35.71584  -8.95542  73.96013  3      319
siesta:     37.12368  -9.48832  78.15910  2      320
siesta:     38.66381  -8.14661  77.75092  1      321
siesta:     36.53409  -9.15762  80.10174  1      322
siesta:     38.25563 -12.19063  78.06840  2      323
siesta:     39.36868 -12.47787  75.77805  3      324
siesta:     40.24362 -12.27000  79.71813  3      325
siesta:     36.71550 -14.60759  78.56917  2      326
siesta:     35.45695 -14.91183  76.94023  1      327
siesta:     38.07611 -16.15339  78.53705  1      328
siesta:     35.13758 -14.93073  81.02393  2      329
siesta:     33.42171 -13.04101  81.18078  3      330
siesta:     33.67115 -17.00376  80.72346  3      331
siesta:     36.40748 -15.13293  83.62608  2      332
siesta:     37.66226 -13.49265  83.82073  1      333
siesta:     34.91837 -14.95152  85.03204  1      334
siesta:     37.96083 -17.47241  84.44811  2      335
siesta:     36.31866 -19.33380  85.12086  3      336
siesta:     39.20994 -18.46452  82.42044  3      337
siesta:     39.88080 -17.18518  86.62319  2      338
siesta:     38.84712 -16.38015  88.20867  1      339
siesta:     40.43449 -19.06545  87.22979  1      340
siesta:     42.32421 -15.61481  86.31894  2      341
siesta:     42.35634 -14.61704  83.97379  3      342
siesta:     42.19193 -13.57958  87.87797  3      343
siesta:     44.91125 -16.85825  86.70067  2      344
siesta:     45.03408 -18.41728  85.34573  1      345
siesta:     46.29642 -15.48064  86.11107  1      346
siesta:     45.67281 -17.74643  89.38975  2      347
siesta:     47.51151 -16.14205  90.14942  3      348
siesta:     43.73395 -17.29856  91.00358  3      349
siesta:     46.66303 -20.45440  89.84895  2      350
siesta:     47.07688 -21.33880  88.04238  1      351
siesta:     48.43559 -20.25976  90.87886  1      352
siesta:     45.04164 -22.33279  91.36074  2      353
siesta:     42.80231 -22.62570  90.13430  3      354
siesta:     46.19815 -24.60802  91.11885  3      355
siesta:     44.56165 -21.93973  94.21233  2      356
siesta:     45.96761 -23.04333  95.21956  1      357
siesta:     44.88857 -19.95552  94.66020  1      358
siesta:     41.96139 -22.62381  95.34806  2      359
siesta:     40.18126 -21.28966  94.04415  3      360
siesta:     41.44927 -25.09746  94.90397  3      361
siesta:     41.46061 -22.04366  98.16564  2      362
siesta:     42.68893 -20.46007  98.70232  1      363
siesta:     39.51797 -21.35202  98.28281  1      364
siesta:     41.74407 -24.11480 100.21789  2      365
siesta:     41.61368 -22.88837 102.45910  3      366
siesta:     39.62001 -25.55289 100.20655  3      367
siesta:     44.06843 -25.89304 100.41442  2      368
siesta:     45.76918 -24.77432 100.02702  1      369
siesta:     44.21016 -26.43728 102.39863  1      370
siesta:     44.28008 -28.35157  98.82327  2      371
siesta:     45.46872 -27.79788  96.62551  3      372
siesta:     45.97328 -29.81044 100.08749  3      373
siesta:     41.98028 -30.07500  98.22422  2      374
siesta:     41.32077 -30.81767 100.03647  1      375
siesta:     40.49685 -28.86936  97.45510  1      376
siesta:     42.21272 -32.36157  96.43087  2      377
siesta:     44.70716 -33.11368  96.34961  3      378
siesta:     40.95605 -34.32500  97.57227  3      379
siesta:     41.23573 -32.14236  93.67943  2      380
siesta:     39.56332 -30.93861  93.68321  1      381
siesta:     42.68704 -31.15593  92.60607  1      382
siesta:     40.56299 -34.53854  92.18088  2      383
siesta:     40.84645 -33.87335  89.72423  3      384
siesta:     42.40358 -36.29598  92.54181  3      385
siesta:     37.92682 -35.78387  92.41520  2      386
siesta:     37.28809 -35.51364  94.36540  1      387
siesta:     36.65503 -34.71239  91.21901  1      388
siesta:     37.57722 -38.58444  91.74246  2      389
siesta:     38.59578 -39.95639  93.65486  3      390
siesta:     35.09412 -39.09278  91.87474  3      391
siesta:     38.61657 -39.68237  89.22912  2      392
siesta:     40.63291 -39.23829  89.13653  1      393
siesta:     38.46917 -41.74407  89.39920  1      394
siesta:     37.49407 -38.98318  86.62508  2      395
siesta:     35.13380 -40.00174  86.48146  3      396
siesta:     37.12179 -36.44905  86.61374  3      397
siesta:     38.82066 -39.71261  84.14387  2      398
siesta:     38.84901 -41.77808  84.08340  1      399
siesta:     37.63958 -39.07010  82.57540  1      400
siesta:     41.53809 -38.82255  83.55616  2      401
siesta:     43.09900 -39.87702  85.31172  3      402
siesta:     42.19004 -39.92048  81.33951  3      403
siesta:     42.15414 -35.98607  83.31428  2      404
siesta:     41.42659 -35.35868  81.49447  1      405
siesta:     41.12046 -34.94672  84.74858  1      406
siesta:     44.92448 -35.09223  83.39176  2      407
siesta:     46.36445 -36.73440  81.99147  3      408
siesta:     44.98684 -32.86235  82.11430  3      409
siesta:     46.27752 -34.72373  85.96934  2      410
siesta:     44.90180 -33.84690  87.25436  1      411
siesta:     46.68381 -36.60212  86.72524  1      412
siesta:     48.77007 -33.21384  86.19422  2      413
siesta:     50.28752 -33.73540  84.18355  3      414
siesta:     48.24473 -30.70050  85.97501  3      415
siesta:     50.44815 -33.53320  88.55071  2      416
siesta:     51.09444 -35.50230  88.58473  1      417
siesta:     52.12623 -32.34645  88.27859  1      418
siesta:     49.42203 -32.91715  91.22279  2      419
siesta:     47.06365 -33.88658  91.45711  3      420
siesta:     50.80909 -34.22673  92.92165  3      421
siesta:     49.27085 -30.15815  92.13741  2      422
siesta:     49.03652 -28.98463  90.45745  1      423
siesta:     47.52852 -30.03532  93.26180  1      424
siesta:     51.44215 -28.96384  93.66998  2      425
siesta:     53.50951 -28.89014  92.18655  3      426
siesta:     50.83365 -26.49019  94.08950  3      427
siesta:     52.26985 -30.04666  96.24757  2      428
siesta:     50.56342 -30.45106  97.34361  1      429
siesta:     53.24683 -31.83245  95.86395  1      430
siesta:     54.03863 -28.54810  97.98990  2      431
siesta:     52.86511 -26.35035  98.61540  3      432
siesta:     54.18225 -29.81422 100.21600  3      433
siesta:     56.79763 -27.99441  97.18298  2      434
siesta:     57.99950 -28.83345  98.64374  1      435
siesta:     57.15290 -29.04888  95.44255  1      436
siesta:     57.79163 -25.28077  96.79181  2      437
siesta:     57.21526 -23.89938  98.90642  3      438
siesta:     60.36544 -25.42816  96.75402  3      439
siesta:     56.94125 -23.65371  94.52603  2      440
siesta:     54.90223 -23.90882  94.30304  1      441
siesta:     57.25872 -21.68084  95.05893  1      442
siesta:     58.11477 -24.05433  91.87852  2      443
siesta:     60.32764 -22.68806  91.76703  3      444
siesta:     58.84232 -26.50342  91.65742  3      445
siesta:     56.62945 -23.43261  89.43132  2      446
siesta:     57.95981 -22.62381  88.08395  1      447
siesta:     56.02851 -25.25809  88.66599  1      448
siesta:     54.29185 -21.66761  89.36329  2      449
siesta:     52.28307 -22.91483  90.36296  3      450
siesta:     54.66413 -19.70796  91.00358  3      451
siesta:     53.47171 -20.46385  86.80271  2      452
siesta:     51.69159 -19.52088  87.13153  1      453
siesta:     54.83987 -19.02766  86.32839  1      454
siesta:     53.09755 -22.18917  84.44811  2      455
siesta:     55.41813 -22.85058  83.58073  3      456
siesta:     52.07709 -24.41905  85.21534  3      457
siesta:     51.56309 -21.32935  82.12564  2      458
siesta:     52.22071 -22.43295  80.53638  1      459
siesta:     49.60722 -21.83012  82.47902  1      460
siesta:     51.56687 -18.54767  81.30550  2      461
siesta:     50.17792 -17.25699  83.05350  3      462
siesta:     53.97249 -17.67084  81.54549  3      463
siesta:     50.58043 -17.80123  78.66744  2      464
siesta:     51.95993 -18.46830  77.32195  1      465
siesta:     48.83810 -18.82735  78.32918  1      466
siesta:     50.08343 -14.98175  78.05517  2      467
siesta:     47.80442 -14.29767  79.11153  3      468
siesta:     51.85600 -13.57958  79.29483  3      469
siesta:     50.08532 -14.08980  75.29050  2      470
siesta:     50.72405 -12.13772  75.27916  1      471
siesta:     51.50262 -15.18773  74.27383  1      472
siesta:     47.64757 -14.19374  73.68801  2      473
siesta:     48.42803 -14.17295  71.23136  3      474
siesta:     46.59878 -16.51999  74.02816  3      475
siesta:     45.51029 -12.22275  74.05840  2      476
siesta:     44.02875 -13.14494  75.15822  1      477
siesta:     46.23973 -10.70908  75.25081  1      478
siesta:     44.24418 -10.91128  71.78505  2      479
siesta:     43.28797  -8.71920  72.70535  3      480
siesta:     46.04131 -10.09114  70.15800  3      481
siesta:     42.15603 -12.15094  70.16556  2      482
siesta:     40.38157 -11.43285  70.96302  1      483
siesta:     42.30343 -11.33458  68.29095  1      484
siesta:     41.83666 -15.02711  69.87454  2      485
siesta:     41.63635 -16.07024  72.20457  3      486
siesta:     39.50663 -15.41450  68.85220  3      487
siesta:     43.74529 -16.64471  68.36087  2      488
siesta:     45.43092 -16.88660  69.51360  1      489
siesta:     42.87223 -18.50232  68.18324  1      490
siesta:     44.63157 -15.93607  65.67746  2      491
siesta:     46.54775 -14.26933  65.94958  3      492
siesta:     45.73139 -18.03744  64.69480  3      493
siesta:     42.76641 -14.84569  63.71970  2      494
siesta:     40.96361 -15.82457  63.87655  1      495
siesta:     42.49240 -12.85581  64.19591  1      496
siesta:     43.43726 -14.78522  60.86243  2      497
siesta:     41.46817 -13.61359  59.67002  3      498
siesta:     45.41581 -13.18651  60.48449  3      499
siesta:     43.87946 -17.27966  59.38089  2      500
siesta:     43.64324 -18.84247  60.70181  1      501
siesta:     42.33744 -17.35903  57.98816  1      502
siesta:     46.35689 -17.74076  57.90501  2      503
siesta:     46.24729 -20.16528  57.07353  3      504
siesta:     46.29453 -16.34803  55.74694  3      505
siesta:     48.98739 -17.32691  59.18058  2      506
siesta:     49.71304 -15.50332  58.49650  1      507
siesta:     48.70015 -17.12470  61.20447  1      508
siesta:     51.11711 -19.27899  58.81964  2      509
siesta:     53.09566 -18.46074  60.27284  3      510
siesta:     50.38768 -21.45785  59.97804  3      511
siesta:     52.21126 -19.98197  56.20426  2      512
siesta:     53.46982 -21.56367  56.50283  1      513
siesta:     50.65602 -20.63204  55.00995  1      514
siesta:     53.70982 -17.99965  54.69814  2      515
siesta:     53.63234 -15.75843  55.91891  3      516
siesta:     56.20237 -18.68373  54.79263  3      517
siesta:     53.13723 -17.49509  51.85600  2      518
siesta:     54.84743 -16.75999  50.99617  1      519
siesta:     52.72149 -19.30167  50.99428  1      520
siesta:     51.00751 -15.69796  51.00940  2      521
siesta:     51.29286 -15.37293  48.47527  3      522
siesta:     48.79464 -16.93195  51.21916  3      523
siesta:     50.69381 -13.05045  52.18292  2      524
siesta:     49.29164 -13.25454  53.66824  1      525
siesta:     52.49283 -12.52511  53.06353  1      526
siesta:     49.86800 -10.76766  50.52941  2      527
siesta:     49.91336  -8.70597  52.11678  3      528
siesta:     51.74072 -10.25744  48.85133  3      529
siesta:     47.34522 -10.75822  49.07621  2      530
siesta:     47.59844  -9.44674  47.50395  1      531
siesta:     47.04286 -12.60448  48.23150  1      532
siesta:     44.84133 -10.04768  50.39902  2      533
siesta:     42.95349 -10.70908  48.78330  3      534
siesta:     44.48795 -11.57647  52.41913  3      535
siesta:     44.30465  -7.33970  51.26829  2      536
siesta:     43.38246  -7.48899  53.12211  1      537
siesta:     46.10934  -6.38539  51.58765  1      538
siesta:     42.67570  -5.51233  49.71304  2      539
siesta:     40.31921  -6.55735  49.53163  3      540
siesta:     42.26563  -3.37694  51.10577  3      541
siesta:     43.44104  -4.71865  47.02585  2      542
siesta:     43.53931  -6.45909  45.96194  1      543
siesta:     41.88580  -3.61883  46.24729  1      544
siesta:     45.92603  -3.24844  46.47783  2      545
siesta:     47.85544  -4.61282  47.41703  3      546
siesta:     46.34555  -3.38450  43.93615  3      547
siesta:     46.32287  -0.47999  47.30175  2      548
siesta:     46.07532  -0.40251  49.35022  1      549
siesta:     48.29386  -0.09638  46.92948  1      550
siesta:     44.75251   1.68564  46.14713  2      551
siesta:     44.73550   1.44186  43.56387  3      552
siesta:     42.32232   1.27179  46.83688  3      553
siesta:     45.22494   4.52590  46.71405  2      554
siesta:     45.27597   5.50477  44.90936  1      555
siesta:     43.54876   5.18919  47.72127  1      556
siesta:     47.51340   5.55391  48.17859  2      557
siesta:     49.33510   3.75678  48.50929  3      558
siesta:     48.64535   7.25277  46.63279  3      559
siesta:     47.23750   6.94475  50.74673  2      560
siesta:     49.11211   7.07892  51.53852  1      561
siesta:     46.60633   8.85337  50.32721  1      562
siesta:     45.51596   5.89595  52.83676  2      563
siesta:     43.16136   6.88994  52.57409  3      564
siesta:     45.16258   3.39395  52.41346  3      565
siesta:     46.27374   6.13594  55.64112  2      566
siesta:     44.71472   5.28935  56.71070  1      567
siesta:     47.96127   4.95675  55.94158  1      568
siesta:     46.76885   8.74755  56.83921  2      569
siesta:     44.69393  10.22153  56.53118  3      570
siesta:     46.85578   8.44519  59.38278  3      571
siesta:     49.10077  10.35192  56.15701  2      572
siesta:     48.87212  10.96231  54.21437  1      573
siesta:     49.02329  12.05079  57.31731  1      574
siesta:     51.82009   9.29179  56.43291  2      575
siesta:     51.99961   7.25655  54.93436  3      576
siesta:     53.41880  11.04356  55.40301  3      577
siesta:     52.90479   8.52267  59.03885  2      578
siesta:     52.29063   9.93240  60.42024  1      579
siesta:     52.00150   6.71609  59.60954  1      580
siesta:     55.77340   8.09370  59.41112  2      581
siesta:     56.92046  10.38216  59.21459  3      582
siesta:     56.11733   7.45497  61.87533  3      583
siesta:     57.26439   6.20397  57.72360  2      584
siesta:     55.94914   5.27423  56.44425  1      585
siesta:     58.56264   7.31702  56.57653  1      586
siesta:     58.91035   4.09504  58.90657  2      587
siesta:     60.50339   3.30513  57.06219  3      588
siesta:     60.49394   5.17785  60.63945  3      589
siesta:     57.70470   1.68753  60.03473  2      590
siesta:     55.90001   1.38139  59.05774  1      591
siesta:     59.00672   0.11905  59.58120  1      592
siesta:     57.10755   1.44942  62.87877  2      593
siesta:     54.99672   2.86672  63.33042  3      594
siesta:     56.34221  -0.97132  63.26806  3      595
siesta:     59.08420   2.08626  64.91590  2      596
siesta:     60.94936   1.84437  64.05229  1      597
siesta:     58.91413   4.08937  65.31841  1      598
siesta:     59.15601   0.77101  67.50104  2      599
siesta:     60.95692   1.95209  68.92023  3      600
siesta:     56.93747   1.32281  68.68779  3      601
siesta:     59.54529  -2.09382  67.83742  2      602
siesta:     59.87600  -2.38861  69.86320  1      603
siesta:     57.76328  -3.01789  67.36498  1      604
siesta:     61.59565  -3.57914  66.40689  2      605
siesta:     61.77328  -2.62861  64.03340  3      606
siesta:     63.85576  -3.05569  67.49915  3      607
siesta:     61.31975  -6.46098  66.12154  2      608
siesta:     59.50561  -6.78979  65.21636  1      609
siesta:     62.78429  -7.10159  64.81952  1      610
siesta:     61.37266  -8.13905  68.50827  2      611
siesta:     63.06019  -7.19041  70.20713  3      612
siesta:     59.09932  -7.83292  69.69124  3      613
siesta:     61.85643 -10.97742  68.25505  2      614
siesta:     60.72070 -11.88638  69.70825  1      615
siesta:     61.17424 -11.55190  66.40689  1      616
siesta:     64.52850 -12.07347  68.55173  2      617
siesta:     65.05574 -12.08858  71.03861  3      618
siesta:     64.33575 -14.58302  67.92245  3      619
siesta:     66.81696 -10.89805  67.15711  2      620
siesta:     66.55618  -8.83447  67.11932  1      621
siesta:     68.45158 -11.31568  68.32119  1      622
siesta:     67.43490 -11.69552  64.42457  2      623
siesta:     65.29573 -11.43096  63.04129  3      624
siesta:     68.91645  -9.79823  63.50238  3      625
siesta:     68.72370 -14.23342  63.84442  2      626
siesta:     70.59831 -14.16728  64.69102  1      627
siesta:     67.65789 -15.73009  64.78929  1      628
siesta:     69.11676 -15.14616  61.09298  2      629
siesta:     70.73248 -13.49454  59.96103  3      630
siesta:     70.50193 -17.29100  61.28195  3      631
siesta:     66.89444 -15.59781  59.24672  2      632
siesta:     66.03084 -13.78745  58.84798  1      633
siesta:     67.77505 -16.21008  57.44770  1      634
siesta:     64.73448 -17.49131  59.86466  2      635
siesta:     63.72726 -18.20374  57.58943  3      636
siesta:     65.76250 -19.68151  60.72637  3      637
siesta:     62.54807 -16.74487  61.69391  2      638
siesta:     62.42146 -18.29823  63.06397  1      639
siesta:     63.13011 -15.10270  62.78807  1      640
siesta:     59.81930 -16.20063  60.81141  2      641
siesta:     58.83665 -18.38893  59.91001  3      642
siesta:     58.44547 -15.76410  62.94302  3      643
siesta:     59.21459 -14.13705  58.84043  2      644
siesta:     59.99127 -14.77200  57.02818  1      645
siesta:     57.16046 -14.14650  58.62689  1      646
siesta:     59.97615 -11.33080  59.24105  2      647
siesta:     59.70970 -10.75255  61.73738  3      648
siesta:     62.49705 -11.16262  58.81964  3      649
siesta:     58.73082  -9.22565  57.63478  2      650
siesta:     60.19914  -8.52267  56.37433  1      651
siesta:     57.26817 -10.08925  56.45559  1      652
siesta:     57.55730  -6.85782  58.89523  2      653
siesta:     59.34687  -5.63328  60.25772  3      654
siesta:     56.96015  -5.19675  57.00739  3      655
siesta:     55.19514  -7.09970  60.57142  2      656
siesta:     55.80363  -7.78190  62.41201  1      657
siesta:     54.46382  -5.20242  60.82086  1      658
siesta:     52.97093  -8.80235  59.73994  2      659
siesta:     52.63078  -8.50755  57.19069  3      660
siesta:     53.62289 -11.26466  60.03662  3      661
siesta:     50.36689  -8.46409  61.04007  2      662
siesta:     49.60533  -6.70664  60.29363  1      663
siesta:     49.16502 -10.02689  60.41835  1      664
siesta:     50.11745  -8.31858  63.95025  2      665
siesta:     51.08688  -6.06413  64.75905  3      666
siesta:     47.60411  -8.06535  64.44725  3      667
siesta:     51.00184 -10.50121  65.67746  2      668
siesta:     49.73761 -10.46909  67.30073  1      669
siesta:     50.67303 -12.26811  64.69669  1      670
siesta:     53.73060 -10.63160  66.75082  2      671
siesta:     55.32175 -11.39694  64.88755  3      672
siesta:     54.52240  -8.26378  67.33286  3      673
siesta:     54.35799 -12.25677  69.08275  2      674
siesta:     56.01906 -11.41206  69.98037  1      675
siesta:     52.75739 -12.07535  70.38855  1      676
siesta:     54.88523 -15.11026  68.82763  2      677
siesta:     57.39101 -15.41639  68.36465  3      678
siesta:     54.61878 -16.10047  71.17278  3      679
siesta:     53.34699 -16.73731  66.95680  2      680
siesta:     51.34766 -16.30267  67.19491  1      681
siesta:     53.87422 -16.11370  65.06330  1      682
siesta:     53.61533 -19.66072  66.95113  2      683
siesta:     51.92592 -20.56401  65.21636  3      684
siesta:     55.87922 -20.21441  65.88533  3      685
siesta:     53.37912 -21.30478  69.34920  2      686
siesta:     54.09343 -23.17750  68.85976  1      687
siesta:     54.66791 -20.51110  70.77405  1      688
siesta:     50.81854 -21.72997  70.64744  2      689
siesta:     51.21916 -21.93973  73.18912  3      690
siesta:     49.52029 -19.54356  70.40177  3      691
siesta:     49.10833 -23.92583  69.72525  2      692
siesta:     47.16569 -23.22096  69.77061  1      693
siesta:     49.53541 -24.26220  67.72592  1      694
siesta:     49.09321 -26.50909  71.07452  2      695
siesta:     48.40913 -28.24953  69.32841  3      696
siesta:     51.51018 -27.11758  71.65466  3      697
siesta:     47.49640 -26.88703  73.47636  2      698
siesta:     47.88568 -25.29966  74.74626  1      699
siesta:     45.53297 -26.74341  72.89999  1      700
siesta:     47.72316 -29.32289  75.05428  2      701
siesta:     45.65958 -29.38903  76.59063  3      702
siesta:     47.40947 -31.35246  73.48014  3      703
siesta:     50.08910 -29.90304  76.69457  2      704
siesta:     49.68848 -31.67560  77.64132  1      705
siesta:     51.65002 -30.21673  75.38876  1      706
siesta:     51.09255 -28.04544  78.72980  2      707
siesta:     52.28874 -26.09146  77.53549  3      708
siesta:     49.03841 -26.92294  79.79561  3      709
siesta:     52.80086 -28.93361  80.93133  2      710
siesta:     53.90635 -27.28388  81.47746  1      711
siesta:     51.56120 -29.39470  82.50925  1      712
siesta:     54.74161 -31.11813  80.59307  2      713
siesta:     53.56431 -33.13069  79.53105  3      714
siesta:     56.43669 -30.37169  78.77704  3      715
siesta:     56.30252 -32.12914  82.86830  2      716
siesta:     55.11388 -33.53698  83.76403  1      717
siesta:     57.93903 -33.13258  82.07651  1      718
siesta:     57.29652 -30.40948  85.00936  2      719
siesta:     55.30664 -29.11691  86.00714  3      720
siesta:     58.02406 -31.95528  86.91610  3      721
siesta:     59.46782 -28.48574  84.58984  2      722
siesta:     59.22215 -27.59568  82.74169  1      723
siesta:     59.26939 -26.99475  85.99958  1      724
siesta:     62.25138 -29.41360  84.71079  2      725
siesta:     62.51405 -31.39970  83.13098  3      726
siesta:     63.68380 -27.58434  83.56939  3      727
siesta:     63.56852 -30.15059  87.21090  2      728
siesta:     62.29485 -31.37703  88.29371  1      729
siesta:     65.20692 -31.29766  86.67421  1      730
siesta:     64.52661 -28.10969  89.05716  2      731
siesta:     66.85098 -27.36702  88.21056  3      732
siesta:     63.05452 -26.01587  88.79638  3      733
siesta:     64.77795 -28.65582  91.88608  2      734
siesta:     62.88444 -28.49330  92.68732  1      735
siesta:     65.37132 -30.61924  92.10151  1      736
siesta:     66.60153 -27.13837  93.57739  2      737
siesta:     66.21792 -27.86024  96.02647  3      738
siesta:     68.98448 -27.93394  93.05582  3      739
siesta:     66.56374 -24.20173  93.53770  2      740
siesta:     66.56374 -23.61970  91.57239  1      741
siesta:     64.76094 -23.64993  94.33706  1      742
siesta:     68.64244 -22.65216  94.88886  2      743
siesta:     70.90633 -23.81245  94.50524  3      744
siesta:     68.86543 -20.40149  93.65297  3      745
siesta:     68.34575 -21.96996  97.69510  2      746
siesta:     67.24026 -20.23709  97.80848  1      747
siesta:     67.21947 -23.45340  98.56060  1      748
siesta:     70.66067 -21.66572  99.44499  2      749
siesta:     69.85564 -20.55456 101.60306  3      750
siesta:     71.28428 -24.05622 100.25757  3      751
siesta:     73.11353 -20.35614  98.61540  2      752
siesta:     74.44768 -20.57157 100.19332  1      753
siesta:     73.88076 -21.42572  97.01480  1      754
siesta:     73.17211 -17.51399  97.94076  2      755
siesta:     70.73437 -16.68062  97.74801  3      756
siesta:     74.08485 -16.21386  99.99112  3      757
siesta:     74.62342 -16.57668  95.58616  2      758
siesta:     73.58785 -17.24376  93.91187  1      759
siesta:     74.53272 -14.51877  95.64475  1      760
siesta:     77.42589 -17.31179  95.16476  2      761
siesta:     78.04761 -19.26577  96.74835  3      762
siesta:     77.57896 -18.32468  92.78181  3      763
siesta:     79.57640 -15.35403  95.32538  2      764
siesta:     81.21101 -16.19685  94.39753  1      765
siesta:     78.98491 -13.73831  94.20666  1      766
siesta:     80.52504 -14.36570  97.90675  2      767
siesta:     79.02649 -15.26899  99.79459  3      768
siesta:     82.81728 -15.44096  98.31304  3      769
siesta:     80.86897 -11.49710  98.37351  2      770
siesta:     82.04627 -11.33836 100.07616  1      771
siesta:     81.91399 -10.71664  96.78614  1      772
siesta:     78.52571  -9.78690  98.73067  2      773
siesta:     79.28727  -7.40962  98.14297  3      774
siesta:     76.80417 -10.35759  96.91842  3      775
siesta:     77.10653  -9.73398 101.25724  2      776
siesta:     75.64388 -11.18718 101.16086  1      777
siesta:     78.44067 -10.29334 102.72177  1      778
siesta:     75.83096  -7.23765 102.16052  2      779
siesta:     74.73114  -7.74977 104.39985  3      780
siesta:     77.73014  -5.59170 102.75012  3      781
siesta:     73.84108  -5.83359 100.54859  2      782
siesta:     73.79950  -3.86071 101.20054  1      783
siesta:     74.49114  -5.83359  98.60973  1      784
siesta:     71.09719  -6.71420 100.52024  2      785
siesta:     69.94824  -5.48210  98.58516  3      786
siesta:     71.03672  -9.18596  99.83616  3      787
siesta:     69.40400  -6.41940 102.90508  2      788
siesta:     69.54006  -8.22598 103.90285  1      789
siesta:     70.26005  -4.95486 104.09938  1      790
siesta:     66.53539  -5.84304 102.69154  2      791
siesta:     65.50549  -7.60804 101.10795  3      792
siesta:     65.49793  -6.36649 104.98945  3      793
siesta:     65.54329  -3.23710 101.86573  2      794
siesta:     66.25004  -2.92530  99.94954  1      795
siesta:     63.48915  -3.39962 101.77880  1      796
siesta:     66.06863  -0.83526 103.45499  2      797
siesta:     63.83497  -0.12661 104.47544  3      798
siesta:     67.52750  -1.49099 105.46566  3      799
siesta:     67.22325   1.59493 102.30036  2      800
siesta:     65.89289   2.29791 100.88685  1      801
siesta:     67.28750   2.99522 103.81215  1      802
siesta:     69.84431   1.50233 101.03803  2      803
siesta:     71.38065   0.00567 102.45721  3      804
siesta:     69.60242   0.25511  98.80248  3      805
siesta:     71.30317   3.98921 100.52780  2      806
siesta:     71.56963   4.96242 102.31926  1      807
siesta:     73.18723   3.44875  99.88151  1      808
siesta:     70.36587   5.94697  98.55304  2      809
siesta:     72.17056   6.01500  96.68599  3      810
siesta:     68.28528   5.04179  97.36062  3      811
siesta:     69.90856   8.77400  99.23712  2      812
siesta:     71.74726   9.66784  99.13507  1      813
siesta:     68.74448   9.53178  97.72345  1      814
siesta:     68.65189   9.54123 101.75801  2      815
siesta:     67.82608   7.44363 102.95988  3      816
siesta:     70.54539  10.42562 103.23767  3      817
siesta:     66.50894  11.50844 101.80148  2      818
siesta:     66.46169  12.28322 103.70821  1      819
siesta:     66.99082  13.00510 100.50134  1      820
siesta:     63.76883  10.68452 101.14007  2      821
siesta:     63.85954   8.46031  99.87962  3      822
siesta:     62.57642  10.14027 103.35861  3      823
siesta:     62.03028  12.45708  99.62640  2      824
siesta:     60.07820  11.93551 100.01380  1      825
siesta:     62.32319  14.34492 100.38985  1      826
siesta:     62.29485  12.65361  96.71811  2      827
siesta:     61.17046  14.89672  96.07182  3      828
siesta:     64.78362  12.95597  96.16820  3      829
siesta:     61.30274  10.58247  94.90208  2      830
siesta:     62.25894  10.88483  93.12196  1      831
siesta:     61.81297   8.73243  95.64475  1      832
siesta:     58.44925  10.40106  94.25013  2      833
siesta:     57.08109  10.79412  96.38741  3      834
siesta:     57.89367  12.42684  92.76858  3      835
siesta:     57.38156   8.04268  92.88197  2      836
siesta:     55.33876   8.26756  92.89141  1      837
siesta:     57.97871   8.10126  90.90342  1      838
siesta:     57.89745   5.33092  93.87407  2      839
siesta:     57.72549   5.41596  96.43087  3      840
siesta:     55.91702   3.88150  93.06716  3      841
siesta:     60.36544   3.89095  93.14275  2      842
siesta:     59.80986   2.48688  91.74813  1      843
siesta:     61.62399   5.20431  92.20355  1      844
siesta:     61.96981   2.52656  95.17798  2      845
siesta:     62.92224   4.36716  96.69732  3      846
siesta:     60.40701   1.16029  96.70299  3      847
siesta:     64.24693   0.82959  94.48823  2      848
siesta:     65.35053   1.84626  93.08417  1      849
siesta:     65.42423   0.75400  96.18143  1      850
siesta:     63.93135  -1.91051  93.56227  2      851
siesta:     66.26705  -2.95742  93.43566  3      852
siesta:     62.83720  -3.25789  95.45955  3      853
siesta:     62.57831  -2.60593  91.09050  2      854
siesta:     62.54429  -4.67329  90.99224  1      855
siesta:     60.63378  -1.98421  91.23223  1      856
siesta:     63.57230  -1.64595  88.52615  2      857
siesta:     63.99560   0.88817  88.71323  3      858
siesta:     65.89289  -2.68152  88.17088  3      859
siesta:     62.01895  -2.09193  86.10163  2      860
siesta:     61.06274  -3.88906  86.33217  1      861
siesta:     60.59031  -0.59904  86.03360  1      862
siesta:     63.28884  -2.16185  83.45790  2      863
siesta:     65.17479  -0.36661  83.52026  3      864
siesta:     64.54551  -4.39739  83.19712  3      865
siesta:     61.81486  -1.65729  80.99180  2      866
siesta:     62.04729   0.34960  80.58362  1      867
siesta:     62.84098  -2.69853  79.52538  1      868
siesta:     59.01050  -2.28657  80.69323  2      869
siesta:     58.72137  -4.82258  81.07117  3      870
siesta:     57.67068  -1.29068  82.66610  3      871
siesta:     57.55352  -1.52879  78.26682  2      872
siesta:     55.59199  -1.23399  78.80728  1      873
siesta:     58.28296   0.30614  77.67722  1      874
siesta:     57.59699  -3.29946  75.95568  2      875
siesta:     56.88267  -1.95776  73.88832  3      876
siesta:     60.07442  -3.90796  75.48703  3      877
siesta:     56.07009  -5.80335  75.95568  2      878
siesta:     56.07387  -6.54034  74.02249  1      879
siesta:     57.11888  -7.15073  77.11219  1      880
siesta:     53.27518  -5.81280  76.83818  2      881
siesta:     52.48905  -8.26567  76.90055  3      882
siesta:     53.20715  -5.04935  79.27404  3      883
siesta:     51.28530  -4.20842  75.44357  2      884
siesta:     49.72816  -3.94386  76.77015  1      885
siesta:     52.11867  -2.36783  75.11853  1      886
siesta:     50.05509  -5.14762  72.94157  2      887
siesta:     51.49317  -7.05813  71.97592  3      888
siesta:     47.85733  -6.34192  73.59352  3      889
siesta:     49.38423  -3.34860  70.73815  2      890
siesta:     48.79464  -4.52968  69.12810  1      891
siesta:     47.74773  -2.27523  71.35042  1      892
siesta:     51.35711  -1.44375  69.78383  2      893
siesta:     51.47427   0.46298  71.47514  3      894
siesta:     53.65879  -2.59837  69.86887  3      895
siesta:     51.10388  -0.17952  67.18357  2      896
siesta:     52.53252   1.30958  67.09286  1      897
siesta:     51.57065  -1.55525  65.70769  1      898
siesta:     48.61700   1.12061  66.36910  2      899
siesta:     48.77007   1.40218  63.80285  3      900
siesta:     46.70649  -0.57070  66.68468  3      901
siesta:     47.77230   3.67174  67.51049  2      902
siesta:     46.50996   3.19931  69.07708  1      903
siesta:     49.41447   4.62794  68.30796  1      904
siesta:     46.36823   5.55391  65.75683  2      905
siesta:     45.80131   7.57403  67.19869  3      906
siesta:     48.04631   6.48554  64.03340  3      907
siesta:     43.94182   4.80558  64.28095  2      908
siesta:     43.61679   6.29657  62.88633  1      909
siesta:     44.36701   3.08592  63.22837  1      910
siesta:     41.41147   4.38417  65.64344  2      911
siesta:     39.80332   3.31458  63.94269  3      912
siesta:     41.74218   2.54357  67.38766  3      913
siesta:     40.02630   6.61026  66.93035  2      914
siesta:     40.79920   6.78223  68.83141  1      915
siesta:     40.53842   8.34692  65.89100  1      916
siesta:     37.10290   6.66318  67.12877  2      917
siesta:     36.47551   8.92518  68.19646  3      918
siesta:     36.12213   6.79924  64.75149  3      919
siesta:     35.62135   4.58826  68.55362  2      920
siesta:     35.86324   2.83837  67.51616  1      921
siesta:     36.53220   4.35582  70.39422  1      922
siesta:     32.75464   4.90195  68.97692  2      923
siesta:     31.90615   2.81569  70.24304  3      924
siesta:     32.36346   6.79357  70.66823  3      925
siesta:     30.90270   5.34604  66.75649  2      926
siesta:     29.01865   5.55769  67.57663  1      927
siesta:     31.37514   7.18096  65.94202  1      928
siesta:     30.66838   3.39584  64.58331  2      929
siesta:     29.42872   4.54668  62.66901  3      930
siesta:     33.03054   3.00656  63.62332  3      931
siesta:     29.26242   0.84849  65.04818  2      932
siesta:     28.58023   0.89573  66.98893  1      933
siesta:     27.62403   0.80313  63.83875  1      934
siesta:     30.73452  -1.67241  64.67023  2      935
siesta:     31.43372  -1.83115  62.20225  3      936
siesta:     32.98140  -1.52123  65.88911  3      937
siesta:     29.47407  -4.21031  65.38644  2      938
siesta:     27.46340  -4.06858  64.96125  1      939
siesta:     30.31500  -5.65406  64.16568  1      940
siesta:     29.69895  -5.20242  68.15678  2      941
siesta:     29.85957  -3.17285  69.70069  3      942
siesta:     27.46340  -6.33059  68.74637  3      943
siesta:     31.87213  -6.99577  68.94669  2      944
siesta:     33.60879  -6.05280  68.36087  1      945
siesta:     31.84757  -7.10159  71.00649  1      946
siesta:     31.98363  -9.76422  68.00560  2      947
siesta:     30.64948 -11.21553  69.66856  3      948
siesta:     30.68161  -9.91162  65.80785  3      949
siesta:     34.56688 -11.06057  67.62577  2      950
siesta:     35.88969 -10.07602  68.87865  1      951
siesta:     34.39303 -12.99187  68.35331  1      952
siesta:     35.81221 -11.13994  64.97637  2      953
siesta:     35.62513  -8.74944  63.99560  3      954
siesta:     38.34256 -11.34781  65.31274  3      955
siesta:     34.96751 -12.99754  62.90334  2      956
siesta:     33.19116 -12.30968  62.16635  1      957
siesta:     36.36401 -12.86148  61.40667  1      958
siesta:     34.52153 -15.83591  63.48537  2      959
siesta:     36.35835 -16.56913  65.10487  3      960
siesta:     32.36535 -15.96630  64.83842  3      961
siesta:     34.35901 -17.80690  61.32164  2      962
siesta:     32.45417 -18.57035  61.26872  1      963
siesta:     34.65192 -16.77133  59.56986  1      964
siesta:     36.19772 -20.07457  61.32542  2      965
siesta:     35.75741 -21.33691  59.10688  3      966
siesta:     38.59956 -19.19396  61.05708  3      967
siesta:     36.12402 -22.07012  63.46648  2      968
siesta:     34.86168 -21.36525  64.92913  1      969
siesta:     35.26230 -23.76332  62.67468  1      970
siesta:     38.55799 -22.94506  64.82141  2      971
siesta:     39.46128 -20.96085  66.17824  3      972
siesta:     37.83422 -24.64204  66.63177  3      973
siesta:     40.75763 -24.16772  63.32853  2      974
siesta:     39.97528 -25.38659  61.86588  1      975
siesta:     41.74596 -22.58224  62.39122  1      976
siesta:     42.85334 -25.66627  64.70992  2      977
siesta:     44.95660 -25.50564  63.23593  3      978
siesta:     43.52419 -24.40960  66.87365  3      979
siesta:     42.53208 -28.48952  65.35998  2      980
siesta:     43.95505 -28.96195  66.79240  1      981
siesta:     40.70850 -28.69361  66.29351  1      982
siesta:     42.57366 -30.56444  63.29640  2      983
siesta:     41.32266 -32.56377  64.33386  3      984
siesta:     41.06754 -29.79721  61.34998  3      985
siesta:     45.02085 -31.52064  62.00572  2      986
siesta:     44.62023 -33.40470  61.29329  1      987
siesta:     45.30431 -30.27153  60.40134  1      988
siesta:     47.54742 -31.74741  63.43057  2      989
siesta:     47.10900 -32.45606  65.86454  3      990
siesta:     48.79464 -33.79399  62.47815  3      991
siesta:     49.50140 -29.57612  63.47026  2      992
siesta:     48.68503 -28.06811  64.62488  1      993
siesta:     51.14735 -30.29232  64.45480  1      994
siesta:     50.44059 -28.41960  60.96637  2      995
siesta:     50.31587 -30.20539  59.13522  3      996
siesta:     48.70015 -26.68861  60.20292  3      997
siesta:     53.04841 -27.11569  60.85487  2      998
siesta:     53.34321 -26.47885  58.94058  1      999
siesta:     52.95204 -25.41872  62.07375  1     1000
siesta:     55.45404 -28.54243  61.62966  2     1001
siesta:     55.58443 -28.51409  64.18646  3     1002
siesta:     55.09688 -31.01798  61.10810  3     1003
siesta:     58.06564 -27.85079  60.58086  2     1004
siesta:     59.43569 -29.02620  61.53707  1     1005
siesta:     58.04863 -28.41204  58.61555  1     1006
siesta:     58.99727 -25.09746  60.75661  2     1007
siesta:     57.03952 -23.55922  60.09142  3     1008
siesta:     59.44514 -24.57401  63.25672  3     1009
siesta:     61.33487 -24.26598  59.23538  2     1010
siesta:     60.83976 -24.33212  57.22849  1     1011
siesta:     61.68069 -22.27610  59.71348  1     1012
siesta:     63.86143 -25.72296  59.53396  2     1013
siesta:     63.54018 -28.04733  58.49650  3     1014
siesta:     65.57163 -24.56267  58.00706  3     1015
siesta:     65.07275 -25.97241  62.18902  2     1016
siesta:     64.76850 -24.19795  63.19247  1     1017
siesta:     64.00505 -27.38214  63.24349  1     1018
siesta:     67.85442 -26.71318  62.44225  2     1019
siesta:     68.12654 -28.10024  64.58897  3     1020
siesta:     68.37977 -28.40071  60.57897  3     1021
siesta:     69.97848 -24.70818  62.38366  2     1022
siesta:     71.74537 -25.71729  62.10776  1     1023
siesta:     69.61754 -23.54222  60.70559  1     1024
siesta:     70.45280 -22.87703  64.60220  2     1025
siesta:     72.59575 -21.57501  64.03340  3     1026
siesta:     68.61598 -21.11581  64.50961  3     1027
siesta:     70.72492 -23.81623  67.34231  2     1028
siesta:     68.82574 -23.82001  68.13032  1     1029
siesta:     71.37687 -25.76643  67.28750  1     1030
siesta:     72.49181 -22.42539  69.22825  2     1031
siesta:     72.09875 -23.48175  71.53372  3     1032
siesta:     74.92389 -23.11325  68.68212  3     1033
siesta:     72.45591 -19.53600  69.58541  2     1034
siesta:     74.09619 -19.02199  70.71358  1     1035
siesta:     72.69401 -18.70263  67.72403  1     1036
siesta:     70.14477 -18.19429  70.77594  2     1037
siesta:     69.85564 -15.91150  69.62321  3     1038
siesta:     68.06229 -19.48686  70.06162  3     1039
siesta:     69.90478 -17.82012  73.68423  2     1040
siesta:     67.94702 -17.22486  74.02438  1     1041
siesta:     70.14288 -19.69662  74.53272  1     1042
siesta:     71.63766 -15.96441  75.14499  2     1043
siesta:     73.94879 -17.06045  75.36987  3     1044
siesta:     72.01938 -13.85548  73.71825  3     1045
siesta:     70.85531 -15.07813  77.81328  2     1046
siesta:     71.16900 -16.64660  79.11342  1     1047
siesta:     72.18757 -13.59092  78.31028  1     1048
siesta:     68.16812 -14.06146  78.36130  2     1049
siesta:     66.58831 -16.08913  78.41044  3     1050
siesta:     68.14544 -13.21675  80.77260  3     1051
siesta:     66.92090 -12.01488  76.67378  2     1052
siesta:     67.64277 -12.27756  74.74815  1     1053
siesta:     64.89889 -12.38905  76.65677  1     1054
siesta:     67.22892  -9.16329  77.28983  2     1055
siesta:     66.05162  -8.70975  79.52349  3     1056
siesta:     69.72525  -8.77778  77.80572  3     1057
siesta:     66.30863  -7.18474  75.32262  2     1058
siesta:     66.52595  -8.00866  73.43857  1     1059
siesta:     64.28851  -6.94475  75.63443  1     1060
siesta:     67.50293  -4.54479  75.28861  2     1061
siesta:     67.49726  -3.62450  77.69801  3     1062
siesta:     70.00682  -4.93408  74.73870  3     1063
siesta:     66.55807  -2.43019  73.52927  2     1064
siesta:     66.96625  -2.98010  71.59041  1     1065
siesta:     64.50205  -2.35271  73.77494  1     1066
siesta:     67.58608   0.27968  73.89777  2     1067
siesta:     67.24971   1.46076  71.64522  3     1068
siesta:     65.93446   1.42674  75.49837  3     1069
siesta:     70.33185   0.78991  74.77838  2     1070
siesta:     70.75515  -0.57637  76.28072  1     1071
[...]
siesta:   1082   -1.093566   -0.308543    0.191890
siesta:   1083    0.850394   -0.030591   -0.403464
siesta:   1084   -0.548876    0.194756   -0.228673
siesta:   1085   -0.407426    0.067521    0.793230
siesta:   1086    1.610520   -0.212536    0.236036
siesta:   1087   -0.338169    0.770332   -0.825643
siesta:   1088   -0.922502   -0.350016    0.124272
siesta:   1089   -0.708594   -0.219986    0.013261
siesta:   1090    0.045476   -0.650106    0.437681
siesta:   1091   -0.241598   -0.595622   -0.564411
siesta:   1092    1.701114    0.198616    0.569109
siesta:   1093   -0.952206    0.961181   -0.601121
siesta:   1094   -0.448756    0.095404    0.112072
siesta:   1095    0.444940   -0.350540    0.300129
siesta:   1096    0.284955    0.381569    0.073250
siesta:   1097   -0.108772    0.170212    0.017479
siesta:   1098   -0.201749    0.679830   -0.641647
siesta:   1099   -0.403445   -1.952643   -0.621509
siesta:   1100    0.654223   -0.109284    0.188460
siesta:   1101    0.340785    0.432406    0.440667
siesta:   1102   -0.524647    0.192692   -0.224752
siesta:   1103   -0.447406   -0.009531   -0.663171
siesta:   1104    1.115487   -0.529489   -0.255743
siesta:   1105   -0.740786    0.659313    0.798289
siesta:   1106    0.419767   -0.035011   -1.209240
siesta:   1107    0.357992   -0.095133   -0.344634
siesta:   1108    0.178690   -0.544606    0.852523
siesta:   1109   -0.274283    0.142434    0.115430
siesta:   1110   -0.579133   -0.688732    0.727513
siesta:   1111   -0.739810    1.726952   -0.154690
siesta:   1112    0.150060   -0.275594   -0.838975
siesta:   1113    0.303782    0.049324   -0.572747
siesta:   1114    0.474027   -1.014293    0.209171
siesta:   1115    0.390411    0.116456    0.268720
siesta:   1116   -1.432486   -0.133094    1.884039
siesta:   1117   -0.008700    1.436838   -1.065903
siesta:   1118    0.535127   -0.243948    0.440340
siesta:   1119    0.287149    0.489433   -0.843398
siesta:   1120   -0.007807   -0.628536    0.066673
siesta:   1121   -0.123212    0.895346    0.506239
siesta:   1122    0.013909   -1.050504   -1.057098
siesta:   1123   -0.122723   -0.227586    1.146711
siesta:   1124    0.536394   -0.884682    0.049311
siesta:   1125    0.078513    1.001017    0.403495
siesta:   1126   -0.055389    0.013364   -0.780247
siesta:   1127   -0.089869   -0.692219   -0.002346
siesta:   1128    0.042684    0.563451    1.681731
siesta:   1129   -0.780990    0.804024   -1.213286
siesta:   1130    0.654801    0.031222   -0.652651
siesta:   1131    0.552540   -0.697273   -0.589604
siesta:   1132    0.076832   -0.271661    0.652321
siesta:   1133   -0.116678   -0.348544   -0.533750
siesta:   1134    0.411330   -1.070757   -0.010278
siesta:   1135   -0.815355    1.503613    0.653309
siesta:   1136    0.580679    0.049293   -0.442194
siesta:   1137   -0.959301   -0.158371    0.329472
siesta:   1138    0.008384    1.327982   -0.069266
siesta:   1139   -0.711387   -0.541853    0.963173
siesta:   1140    1.574353    0.742811   -0.463627
siesta:   1141   -0.501066   -1.160666    0.011686
siesta:   1142   -0.319363    0.924001    0.493218
siesta:   1143    0.359655    0.642331   -0.412261
siesta:   1144    0.213685   -0.241669   -0.408015
siesta:   1145    0.439884    0.419562   -0.495846
siesta:   1146   -0.158200   -0.656257   -1.142483
siesta:   1147   -0.806056   -0.661775    1.370049
siesta:   1148   -0.278556    0.547424    0.290490
siesta:   1149   -0.044114   -0.018176    0.318555
siesta:   1150   -0.035336    0.435452    0.797965
siesta:   1151   -0.276969    0.106858    0.552217
siesta:   1152    1.389115    0.158241   -0.610295
siesta:   1153   -0.924230   -0.633499   -0.861757
siesta:   1154   -0.203170    0.169623    0.358457
siesta:   1155    0.713249    0.529559    0.290388
siesta:   1156    0.035434    0.038023   -0.684371
siesta:   1157    0.273130   -0.150750   -0.688357
siesta:   1158   -1.182187   -0.849616   -1.448898
siesta:   1159    0.079375   -0.270926    2.238917
siesta:   1160    0.279293    0.185288   -0.625710
siesta:   1161   -0.863008   -0.145406    0.757804
siesta:   1162    0.597299    0.609760    0.138107
siesta:   1163   -0.225737   -0.333713    0.099273
siesta:   1164    0.224827    1.594866    0.334761
siesta:   1165    0.591661   -1.069643   -1.006349
siesta:   1166   -0.635399    0.096031    0.219015
siesta:   1167    0.365621   -0.219325   -0.821674
siesta:   1168   -0.307872   -0.799730   -0.037331
siesta:   1169    0.552772   -0.856633   -0.112495
siesta:   1170   -0.691344   -0.218085    1.783585
siesta:   1171    0.214857    1.108459   -0.598624
siesta:   1172    0.382390   -0.449242    0.200588
siesta:   1173   -0.261890    0.709071    0.332176
siesta:   1174    0.064156   -0.039773   -0.608150
siesta:   1175    0.134833    0.246547   -0.028506
siesta:   1176   -1.041521    0.582421   -0.369570
siesta:   1177    0.777335   -1.012772    0.257976
siesta:   1178    0.135980    0.275382    0.313815
siesta:   1179   -0.265308   -0.632933   -0.182502
siesta:   1180    0.633847   -0.147246    0.579042
siesta:   1181    0.743534   -0.832175    0.651069
siesta:   1182    0.806713    1.380810   -0.127084
siesta:   1183   -1.117974   -1.204607   -0.633212
siesta:   1184    0.181000   -0.428142   -0.165857
siesta:   1185    0.386379   -0.076184    0.402818
siesta:   1186   -0.560256    1.023743    0.013520
siesta:   1187   -0.954992   -0.062336   -0.774240
siesta:   1188    0.874538   -1.625107   -0.595169
siesta:   1189    0.762947    0.546255    1.377160
siesta:   1190    0.648705   -0.434524   -0.134610
siesta:   1191   -0.122353    0.482173    0.462644
siesta:   1192   -0.675795    0.329816   -0.892191
siesta:   1193    0.498314    0.219737   -0.919792
siesta:   1194    0.712943   -0.451073    0.614621
siesta:   1195   -1.186665    0.582257    0.277717
siesta:   1196    0.084849   -0.082574   -0.198762
siesta:   1197    0.635904   -0.224292   -0.224952
siesta:   1198   -0.193821   -0.702323    0.475124
siesta:   1199   -0.316188   -0.191622    0.777691
siesta:   1200   -1.140025    0.655661    0.549861
siesta:   1201    1.134730    0.536951   -1.368423
siesta:   1202   -0.893237    0.618114    0.104456
siesta:   1203    0.099759    0.316242   -0.732085
siesta:   1204    0.717813   -0.886460   -0.173218
siesta:   1205    0.489368    0.675387    0.405921
siesta:   1206    0.086197   -1.683390   -0.346908
siesta:   1207   -0.309457    0.683000    1.149554
siesta:   1208    0.348682    0.823873    0.012671
siesta:   1209   -0.182188   -0.068444   -1.040660
siesta:   1210   -0.302979   -0.653757    0.058822
siesta:   1211    0.040980    0.527121   -0.153800
siesta:   1212   -0.786786   -0.376465   -0.541070
siesta:   1213    0.039314   -0.256947    1.073156
siesta:   1214    0.560953   -0.559765   -1.484912
siesta:   1215    0.190662    0.524687    0.807615
siesta:   1216    0.098045    0.400489   -0.072300
siesta:   1217    0.432620   -1.173536   -0.206375
siesta:   1218   -1.163347   -0.205984    0.564350
siesta:   1219    0.679343    1.082645   -0.301758
siesta:   1220    0.779661    0.081541    0.047961
siesta:   1221   -0.388386   -0.572585    0.153477
siesta:   1222   -0.432665    0.632844    0.087707
siesta:   1223    0.801344   -0.493987    0.474253
siesta:   1224    0.381293   -0.649692    0.466355
siesta:   1225   -1.230166    0.238804   -0.792317
siesta:   1226    0.317009    0.028819   -0.384466
siesta:   1227   -0.158831   -0.092930   -0.379643
siesta:   1228    0.169099    1.038352    0.275508
siesta:   1229   -0.284626    0.328784   -0.095308
siesta:   1230    0.433159    1.220799    1.268228
siesta:   1231    0.392271   -2.445150    0.378854
siesta:   1232    0.190762   -0.121511    0.233361
siesta:   1233    0.036492   -0.606622   -0.214431
siesta:   1234   -0.504722    0.667714   -1.177410
siesta:   1235    0.201276   -0.796508    0.299917
siesta:   1236    0.418849   -0.332465   -1.335955
siesta:   1237   -0.719047    1.015100    0.399149
siesta:   1238    0.160948   -0.951591   -0.808197
siesta:   1239    0.491935    0.912157    0.359128
siesta:   1240   -0.547688   -0.697124    1.293042
siesta:   1241   -0.333103   -0.189806   -0.581811
siesta:   1242    0.008193    0.603689   -0.835585
siesta:   1243    0.154498   -0.251392    1.076971
siesta:   1244   -0.723905   -0.102199    0.668456
siesta:   1245   -0.296337   -0.113218   -0.660133
siesta:   1246    0.538081   -0.030253   -0.381585
siesta:   1247    0.361512    1.275989   -0.886066
siesta:   1248   -0.945073    0.289701    0.574576
siesta:   1249    0.188479   -0.646115   -0.544113
siesta:   1250    0.344862   -0.318106    1.006727
siesta:   1251    0.054982   -0.049383    0.129498
siesta:   1252   -0.700637   -0.107277    0.540114
siesta:   1253    0.712562   -0.034181    0.378167
siesta:   1254   -0.421357   -0.528560    0.638473
siesta:   1255   -0.153798    0.769050    0.820454
siesta:   1256    0.427932   -0.505148    0.524125
siesta:   1257    0.541666    1.166099    0.584796
siesta:   1258    0.094490   -0.326277   -0.747389
siesta:   1259    0.174958    0.640371   -0.443082
siesta:   1260   -0.175732    0.083486   -0.613107
siesta:   1261    0.395030    0.184184   -0.544824
siesta:   1262   -0.606613   -0.310543   -0.654831
siesta:   1263    0.549028    0.009947   -0.855302
siesta:   1264   -0.438789   -0.125816    0.232083
siesta:   1265    0.606621   -0.199880    0.107725
siesta:   1266   -0.069516    0.471168    0.581473
siesta:   1267   -0.115026   -1.049728    0.571245
siesta:   1268    0.818206    0.348856    0.703793
siesta:   1269   -1.494812    0.379238    0.538524
siesta:   1270   -0.380479    0.002035    0.237289
siesta:   1271    0.364403   -0.142556    0.354701
siesta:   1272   -0.662009   -0.455420    0.143920
siesta:   1273   -0.739382    0.642051    0.041463
siesta:   1274    0.211678   -0.430072    0.093068
siesta:   1275    0.093652    0.279822   -0.038702
siesta:   1276    0.001987   -0.031511    0.013536
siesta:   1277   -0.164751   -0.125953   -0.376005
siesta:   1278   -0.181593    0.798592   -0.668188
siesta:   1279   -0.141016    0.058855   -0.223227
siesta:   1280    0.394923    0.524715   -0.346713
siesta:   1281   -0.539989   -0.470295   -0.823466
siesta:   1282    0.784751   -0.360413   -0.382919
siesta: ----------------------------------------
siesta:    Tot    0.020338   -0.235425    0.100389

siesta: Stress tensor (static) (eV/Ang**3):
siesta:     0.000034    0.000324    0.002514
siesta:     0.000324   -0.001005   -0.000041
siesta:     0.002514   -0.000041    0.000116

siesta: Cell volume =      13041.289483 Ang**3

siesta: Pressure (static):
siesta:                Solid            Molecule  Units
siesta:           0.00000311         -0.00027778  Ry/Bohr**3
siesta:           0.00028521         -0.02550444  eV/Ang**3
siesta:           0.45696726        -40.86305953  kBar
(Free)E+ p_basis*V_orbitals  =     -374628.603655
(Free)Eharris+ p_basis*V_orbitals  =     -374628.614083

Optical: Performing optical calculation: 

Optical: Polarization type       = polarized   
Optical: Minimum of energy range =   0.0001 Ry 
Optical: Maximum of energy range =   7.3498 Ry 
Optical: Gaussian broadening     =   0.0037 Ry 
Optical: Scissor operator        =   0.0000 Ry 
Optical: Number of bands         =    13386
Optical: BZ mesh dimensions      =    1   1   1

Optical: electric field direction
Optical:      0.00000     1.00000     0.00000

Optical: Checking f-sum rule  0.880099
Optical: For insulators and closed shell systems
Optical: this number should be close to 1 if an enough
Optical: number of unoccupied bands have been included

* Maximum dynamic memory allocated : Node    0 =   313 MB
* Maximum dynamic memory allocated : Node    1 =   309 MB
* Maximum dynamic memory allocated : Node    2 =   309 MB
* Maximum dynamic memory allocated : Node    3 =   311 MB
* Maximum dynamic memory allocated : Node    4 =   307 MB
* Maximum dynamic memory allocated : Node    5 =   310 MB
* Maximum dynamic memory allocated : Node    6 =   304 MB
* Maximum dynamic memory allocated : Node    7 =   308 MB
* Maximum dynamic memory allocated : Node    8 =   310 MB
* Maximum dynamic memory allocated : Node    9 =   308 MB
* Maximum dynamic memory allocated : Node   10 =   313 MB
* Maximum dynamic memory allocated : Node   11 =   308 MB
* Maximum dynamic memory allocated : Node   12 =   309 MB
* Maximum dynamic memory allocated : Node   13 =   310 MB
* Maximum dynamic memory allocated : Node   14 =   304 MB
* Maximum dynamic memory allocated : Node   15 =   311 MB
* Maximum dynamic memory allocated : Node   16 =   309 MB
* Maximum dynamic memory allocated : Node   17 =   310 MB
* Maximum dynamic memory allocated : Node   18 =   308 MB
* Maximum dynamic memory allocated : Node   19 =   310 MB
* Maximum dynamic memory allocated : Node   20 =   310 MB
* Maximum dynamic memory allocated : Node   21 =   310 MB
* Maximum dynamic memory allocated : Node   22 =   306 MB
* Maximum dynamic memory allocated : Node   23 =   310 MB
* Maximum dynamic memory allocated : Node   24 =   311 MB
* Maximum dynamic memory allocated : Node   25 =   310 MB
* Maximum dynamic memory allocated : Node   26 =   310 MB
* Maximum dynamic memory allocated : Node   27 =   313 MB
* Maximum dynamic memory allocated : Node   28 =   312 MB
* Maximum dynamic memory allocated : Node   29 =   314 MB
* Maximum dynamic memory allocated : Node   30 =   311 MB
* Maximum dynamic memory allocated : Node   31 =   309 MB
* Maximum dynamic memory allocated : Node   32 =   310 MB
* Maximum dynamic memory allocated : Node   33 =   311 MB
* Maximum dynamic memory allocated : Node   34 =   310 MB
* Maximum dynamic memory allocated : Node   35 =   310 MB
* Maximum dynamic memory allocated : Node   36 =   312 MB
* Maximum dynamic memory allocated : Node   37 =   310 MB
* Maximum dynamic memory allocated : Node   38 =   309 MB
* Maximum dynamic memory allocated : Node   39 =   312 MB
* Maximum dynamic memory allocated : Node   40 =   309 MB
* Maximum dynamic memory allocated : Node   41 =   310 MB
* Maximum dynamic memory allocated : Node   42 =   309 MB
* Maximum dynamic memory allocated : Node   43 =   314 MB
* Maximum dynamic memory allocated : Node   44 =   310 MB
* Maximum dynamic memory allocated : Node   45 =   309 MB
* Maximum dynamic memory allocated : Node   46 =   298 MB
* Maximum dynamic memory allocated : Node   47 =   297 MB
* Maximum dynamic memory allocated : Node   48 =   296 MB
* Maximum dynamic memory allocated : Node   49 =   295 MB
* Maximum dynamic memory allocated : Node   50 =   298 MB
* Maximum dynamic memory allocated : Node   51 =   297 MB
* Maximum dynamic memory allocated : Node   52 =   295 MB
* Maximum dynamic memory allocated : Node   53 =   295 MB
* Maximum dynamic memory allocated : Node   54 =   294 MB
* Maximum dynamic memory allocated : Node   55 =   299 MB
* Maximum dynamic memory allocated : Node   56 =   302 MB
* Maximum dynamic memory allocated : Node   57 =   295 MB
* Maximum dynamic memory allocated : Node   58 =   298 MB
* Maximum dynamic memory allocated : Node   59 =   295 MB
* Maximum dynamic memory allocated : Node   60 =   298 MB
* Maximum dynamic memory allocated : Node   61 =   302 MB
* Maximum dynamic memory allocated : Node   62 =   297 MB
* Maximum dynamic memory allocated : Node   63 =   298 MB

* Maximum memory occured during rdiag                         

timer: CPU execution times:
timer:  Routine       Calls   Time/call    Tot.time        %
timer:  siesta            115273610.53215273610.532   100.00
timer:  Setup             1     218.251     218.251     0.00
timer:  bands             1       0.014       0.014     0.00
timer:  writewave         1       0.046       0.046     0.00
timer:  KSV_init          1       0.008       0.008     0.00
timer:  IterMD            1  220713.334  220713.334     1.45
timer:  hsparse           1      36.550      36.550     0.00
timer:  overlap           1     110.561     110.561     0.00
timer:  IterSCF          25    8726.903  218172.572     1.43
timer:  kinefsm           2      56.505     113.011     0.00
timer:  nlefsm            2     252.384     504.768     0.00
timer:  DHSCF            26    1214.244   31570.335     0.21
timer:  DHSCF1            1      47.150      47.150     0.00
timer:  DHSCF2            1    1513.448    1513.448     0.01
timer:  REORD           158       0.089      14.125     0.00
timer:  POISON           27      18.119     489.216     0.00
timer:  DHSCF3           26    1133.963   29483.029     0.19
timer:  rhoofd           26     358.191    9312.956     0.06
timer:  cellXC           26      98.301    2555.820     0.02
timer:  vmat             26     463.278   12045.237     0.08
timer:  MolMec            2       0.113       0.226     0.00
timer:  diagon           25    6773.268  169331.693     1.11
timer:  r-eigvec         25    6620.026  165500.645     1.08
timer:  r-buildHS        25       0.750      18.751     0.00
timer:  rdiag            26    6631.528  172419.725     1.13
timer:  rdiag1           26     244.812    6365.114     0.04
timer:  rdiag2           26    1564.790   40684.532     0.27
timer:  rdiag3           26    4126.238  107282.188     0.70
timer:  rdiag4           26     659.184   17138.777     0.11
timer:  r-buildD         25     152.688    3817.211     0.02
timer:  DHSCF4            1     522.222     522.222     0.00
timer:  dfscf             1     463.634     463.634     0.00
timer:  overfsm           1       5.016       5.016     0.00
timer:  optical           115052643.38915052643.389    98.55
timer:  phirphiopt        1    1601.655    1601.655     0.01
timer:  transrate         115043901.05215043901.052    98.50
  

elaps: ELAPSED times:
elaps:  Routine       Calls   Time/call    Tot.time        %
elaps:  siesta            1   23927.259   23927.259   100.00
elaps:  Setup             1       3.391       3.391     0.01
elaps:  bands             1       0.000       0.000     0.00
elaps:  writewave         1       0.001       0.001     0.00
elaps:  KSV_init          1       0.000       0.000     0.00
elaps:  IterMD            1    3463.104    3463.104    14.47
elaps:  hsparse           1       0.543       0.543     0.00
elaps:  overlap           1       1.458       1.458     0.01
elaps:  IterSCF          25     136.896    3422.394    14.30
elaps:  kinefsm           2       0.754       1.508     0.01
elaps:  nlefsm            2       3.791       7.583     0.03
elaps:  DHSCF            26      18.976     493.389     2.06
elaps:  DHSCF1            1       0.692       0.692     0.00
elaps:  DHSCF2            1      23.714      23.714     0.10
elaps:  REORD           158       0.001       0.229     0.00
elaps:  POISON           27       0.288       7.777     0.03
elaps:  DHSCF3           26      17.719     460.684     1.93
elaps:  rhoofd           26       5.541     144.055     0.60
elaps:  cellXC           26       1.535      39.922     0.17
elaps:  vmat             26       7.238     188.178     0.79
elaps:  MolMec            2       0.002       0.003     0.00
elaps:  diagon           25     106.388    2659.692    11.12
elaps:  r-eigvec         25     103.996    2599.905    10.87
elaps:  r-buildHS        25       0.015       0.384     0.00
elaps:  rdiag            26     104.158    2708.104    11.32
elaps:  rdiag1           26       3.839      99.804     0.42
elaps:  rdiag2           26      24.649     640.865     2.68
elaps:  rdiag3           26      64.762    1683.824     7.04
elaps:  rdiag4           26      10.334     268.689     1.12
elaps:  r-buildD         25       2.383      59.586     0.25
elaps:  DHSCF4            1       8.205       8.205     0.03
elaps:  dfscf             1       7.282       7.282     0.03
elaps:  overfsm           1       0.078       0.078     0.00
elaps:  optical           1   20460.152   20460.152    85.51
elaps:  phirphiopt        1      25.356      25.356     0.11
elaps:  transrate         1   20322.961   20322.961    84.94
  
>> End of run:  28-MAR-2012  23:18:22
