Siesta Version:                                        siesta-3.2-pl-3
Architecture  : x86_64-unknown-linux-gnu--Intel
Compiler flags: mpif90 -O3 -xSSSE3 -axSSE4.2,SSE4.1 -ip
PARALLEL version
NetCDF support

* Running on   64 nodes in parallel
>> Start of run:  25-SEP-2014   4:34:02

                           ***********************       
                           *  WELCOME TO SIESTA  *       
                           ***********************       

reinit: Reading from standard input
************************** Dump of input data file ****************************
SystemName      optical
SystemLabel     optical
NumberOfAtoms   1282
NumberOfSpecies 4
MD.TypeOfRun    CG
MD.NumCGsteps   0
MD.ConstantVolume  .true.
SolutionMethod  diagon
XC.functional   GGA
XC.authors      PBE
PAO.BasisSize   DZP
DM.NumberPulay  7
DM.MixingWeight 0.1
DirectPhi       .true.
SaveMemory      .true.
MeshCutoff      500 Ry
MaxSCFiterations 200
UseSaveData     .true.
WriteMullikenPop 1
%block ChemicalSpeciesLabel
 1   1   H
 2   6   C
 3   9   F
 4  47   Ag
%endblock ChemicalSpeciesLabel
LatticeConstant 1.0 Ang
%block LatticeParameters
  22.534   24.472   23.649   90.0 90.0 90.0
%endblock LatticeParameters
AtomicCoordinatesFormat Ang
%block AtomicCoordinatesAndAtomicSpecies < struct.coor
%endblock AtomicCoordinatesAndAtomicSpecies
************************** End of input data file *****************************

reinit: -----------------------------------------------------------------------
reinit: System Name: optical
reinit: -----------------------------------------------------------------------
reinit: System Label: optical                                                     
reinit: -----------------------------------------------------------------------

initatom: Reading input for the pseudopotentials and atomic orbitals ----------
 Species number:            1  Label: H Atomic number:           1
 Species number:            2  Label: C Atomic number:           6
 Species number:            3  Label: F Atomic number:           9
 Species number:            4  Label: Ag Atomic number:          47
Ground state valence configuration:   1s01
Reading pseudopotential information in formatted form from H.psf

Valence configuration for pseudopotential generation:
1s( 1.00) rc: 1.33
2p( 0.00) rc: 1.33
3d( 0.00) rc: 0.37
4f( 0.00) rc: 1.33
Ground state valence configuration:   2s02  2p02
Reading pseudopotential information in formatted form from C.psf

Valence configuration for pseudopotential generation:
2s( 2.00) rc: 1.56
2p( 2.00) rc: 1.56
3d( 0.00) rc: 1.56
4f( 0.00) rc: 1.56
Ground state valence configuration:   2s02  2p05
Reading pseudopotential information in formatted form from F.psf

Valence configuration for pseudopotential generation:
2s( 2.00) rc: 1.41
2p( 5.00) rc: 1.41
3d( 0.00) rc: 1.41
4f( 0.00) rc: 1.41
Ground state valence configuration:   5s01  4d10
Reading pseudopotential information in formatted form from Ag.psf

Valence configuration for pseudopotential generation:
5s( 1.00) rc: 2.52
5p( 0.00) rc: 2.72
4d(10.00) rc: 2.52
4f( 0.00) rc: 2.52
For H, standard SIESTA heuristics set lmxkb to 2
 (one more than the basis l, including polarization orbitals).
Use PS.lmax or PS.KBprojectors blocks to override.
For C, standard SIESTA heuristics set lmxkb to 3
 (one more than the basis l, including polarization orbitals).
Use PS.lmax or PS.KBprojectors blocks to override.
For F, standard SIESTA heuristics set lmxkb to 3
 (one more than the basis l, including polarization orbitals).
Use PS.lmax or PS.KBprojectors blocks to override.
For Ag, standard SIESTA heuristics set lmxkb to 3
 (one more than the basis l, including polarization orbitals).
Use PS.lmax or PS.KBprojectors blocks to override.

<basis_specs>
===============================================================================
H                    Z=   1    Mass=  1.0100        Charge= 0.17977+309
Lmxo=0 Lmxkb= 2    BasisType=split      Semic=F
L=0  Nsemic=0  Cnfigmx=1
          n=1  nzeta=2  polorb=1
            splnorm:   0.15000    
               vcte:    0.0000    
               rinn:    0.0000    
                rcs:    0.0000      0.0000    
            lambdas:   1.00000     1.00000    
-------------------------------------------------------------------------------
L=0  Nkbl=1  erefs: 0.17977+309
L=1  Nkbl=1  erefs: 0.17977+309
L=2  Nkbl=1  erefs: 0.17977+309
===============================================================================
</basis_specs>

atom: Called for H                     (Z =   1)

read_vps: Pseudopotential generation method:
read_vps: ATM 3.2.2 Troullier-Martins                       
Total valence charge:    1.00000

xc_check: Exchange-correlation functional:
xc_check: GGA Perdew, Burke & Ernzerhof 1996
V l=0 = -2*Zval/r beyond r=  1.2656
V l=1 = -2*Zval/r beyond r=  1.2498
V l=2 = -2*Zval/r beyond r=  0.3563
All V_l potentials equal beyond r=  1.2656
This should be close to max(r_c) in ps generation
All pots = -2*Zval/r beyond r=  1.2656

VLOCAL1: 99.0% of the norm of Vloc inside     27.100 Ry
VLOCAL1: 99.9% of the norm of Vloc inside     61.762 Ry
atom: Maximum radius for 4*pi*r*r*local-pseudopot. charge    1.48935
atom: Maximum radius for r*vlocal+2*Zval:    1.24984
GHOST: No ghost state for L =  0
GHOST: No ghost state for L =  1
GHOST: No ghost state for L =  2

KBgen: Kleinman-Bylander projectors: 
   l= 0   rc=  1.398961   el= -0.477209   Ekb= -2.001853   kbcos= -0.352188
   l= 1   rc=  1.470814   el=  0.001006   Ekb= -0.423408   kbcos= -0.024395
   l= 2   rc=  1.489346   el=  0.001895   Ekb= -0.481957   kbcos= -0.001574

KBgen: Total number of  Kleinman-Bylander projectors:    9
atom: -------------------------------------------------------------------------

atom: SANKEY-TYPE ORBITALS:
atom: Selected multiple-zeta basis: split     

SPLIT: Orbitals with angular momentum L= 0

SPLIT: Basis orbitals for state 1s

SPLIT: PAO cut-off radius determined from an
SPLIT: energy shift=  0.020000 Ry

   izeta = 1
                 lambda =    1.000000
                     rc =    4.708991
                 energy =   -0.457764
                kinetic =    0.979534
    potential(screened) =   -1.437298
       potential(ionic) =   -1.965615

   izeta = 2
                 rmatch =    3.759707
              splitnorm =    0.150000
                 energy =   -0.339003
                kinetic =    1.582546
    potential(screened) =   -1.921548
       potential(ionic) =   -2.471878

POLgen: Perturbative polarization orbital with L=  1

POLgen: Polarization orbital for state 1s

   izeta = 1
                     rc =    4.708991
                 energy =    0.764951
                kinetic =    1.476882
    potential(screened) =   -0.711931
       potential(ionic) =   -1.204335
atom: Total number of Sankey-type orbitals:  5

atm_pop: Valence configuration (for local Pseudopot. screening):
 1s( 1.00)                                                            
Vna: chval, zval:    1.00000   1.00000

Vna:  Cut-off radius for the neutral-atom potential:   4.708991

atom: _________________________________________________________________________

<basis_specs>
===============================================================================
C                    Z=   6    Mass=  12.010        Charge= 0.17977+309
Lmxo=1 Lmxkb= 3    BasisType=split      Semic=F
L=0  Nsemic=0  Cnfigmx=2
          n=1  nzeta=2  polorb=0
            splnorm:   0.15000    
               vcte:    0.0000    
               rinn:    0.0000    
                rcs:    0.0000      0.0000    
            lambdas:   1.00000     1.00000    
L=1  Nsemic=0  Cnfigmx=2
          n=1  nzeta=2  polorb=1
            splnorm:   0.15000    
               vcte:    0.0000    
               rinn:    0.0000    
                rcs:    0.0000      0.0000    
            lambdas:   1.00000     1.00000    
-------------------------------------------------------------------------------
L=0  Nkbl=1  erefs: 0.17977+309
L=1  Nkbl=1  erefs: 0.17977+309
L=2  Nkbl=1  erefs: 0.17977+309
L=3  Nkbl=1  erefs: 0.17977+309
===============================================================================
</basis_specs>

atom: Called for C                     (Z =   6)

read_vps: Pseudopotential generation method:
read_vps: ATM 3.2.2 Troullier-Martins                       
Total valence charge:    4.00000

xc_check: Exchange-correlation functional:
xc_check: GGA Perdew, Burke & Ernzerhof 1996
V l=0 = -2*Zval/r beyond r=  1.5227
V l=1 = -2*Zval/r beyond r=  1.5227
V l=2 = -2*Zval/r beyond r=  1.5227
V l=3 = -2*Zval/r beyond r=  1.5227
All V_l potentials equal beyond r=  1.4851
This should be close to max(r_c) in ps generation
All pots = -2*Zval/r beyond r=  1.5227

VLOCAL1: 99.0% of the norm of Vloc inside     19.682 Ry
VLOCAL1: 99.9% of the norm of Vloc inside     44.856 Ry
atom: Maximum radius for 4*pi*r*r*local-pseudopot. charge    1.79142
atom: Maximum radius for r*vlocal+2*Zval:    1.54183
GHOST: No ghost state for L =  0
GHOST: No ghost state for L =  1
GHOST: No ghost state for L =  2
GHOST: No ghost state for L =  3

KBgen: Kleinman-Bylander projectors: 
   l= 0   rc=  1.661951   el= -1.010689   Ekb=  5.289847   kbcos=  0.316429
   l= 1   rc=  1.661951   el= -0.388490   Ekb= -4.102504   kbcos= -0.351025
   l= 2   rc=  1.747182   el=  0.001971   Ekb= -1.006005   kbcos= -0.008530
   l= 3   rc=  1.791422   el=  0.003065   Ekb= -0.421399   kbcos= -0.001072

KBgen: Total number of  Kleinman-Bylander projectors:   16
atom: -------------------------------------------------------------------------

atom: SANKEY-TYPE ORBITALS:
atom: Selected multiple-zeta basis: split     

SPLIT: Orbitals with angular momentum L= 0

SPLIT: Basis orbitals for state 2s

SPLIT: PAO cut-off radius determined from an
SPLIT: energy shift=  0.020000 Ry

   izeta = 1
                 lambda =    1.000000
                     rc =    4.088342
                 energy =   -0.990050
                kinetic =    0.909804
    potential(screened) =   -1.899854
       potential(ionic) =   -5.513925

   izeta = 2
                 rmatch =    3.347176
              splitnorm =    0.150000
                 energy =   -0.836186
                kinetic =    1.375045
    potential(screened) =   -2.211230
       potential(ionic) =   -6.057915

SPLIT: Orbitals with angular momentum L= 1

SPLIT: Basis orbitals for state 2p

SPLIT: PAO cut-off radius determined from an
SPLIT: energy shift=  0.020000 Ry

   izeta = 1
                 lambda =    1.000000
                     rc =    4.870301
                 energy =   -0.368677
                kinetic =    2.532104
    potential(screened) =   -2.900781
       potential(ionic) =   -6.401132

   izeta = 2
                 rmatch =    3.475094
              splitnorm =    0.150000
                 energy =   -0.205777
                kinetic =    3.787472
    potential(screened) =   -3.993249
       potential(ionic) =   -7.860448

POLgen: Perturbative polarization orbital with L=  2

POLgen: Polarization orbital for state 2p

   izeta = 1
                     rc =    4.870301
                 energy =    1.296521
                kinetic =    2.641128
    potential(screened) =   -1.344607
       potential(ionic) =   -4.300412
atom: Total number of Sankey-type orbitals: 13

atm_pop: Valence configuration (for local Pseudopot. screening):
 2s( 2.00)                                                            
 2p( 2.00)                                                            
Vna: chval, zval:    4.00000   4.00000

Vna:  Cut-off radius for the neutral-atom potential:   4.870301

atom: _________________________________________________________________________

<basis_specs>
===============================================================================
F                    Z=   9    Mass=  19.000        Charge= 0.17977+309
Lmxo=1 Lmxkb= 3    BasisType=split      Semic=F
L=0  Nsemic=0  Cnfigmx=2
          n=1  nzeta=2  polorb=0
            splnorm:   0.15000    
               vcte:    0.0000    
               rinn:    0.0000    
                rcs:    0.0000      0.0000    
            lambdas:   1.00000     1.00000    
L=1  Nsemic=0  Cnfigmx=2
          n=1  nzeta=2  polorb=1
            splnorm:   0.15000    
               vcte:    0.0000    
               rinn:    0.0000    
                rcs:    0.0000      0.0000    
            lambdas:   1.00000     1.00000    
-------------------------------------------------------------------------------
L=0  Nkbl=1  erefs: 0.17977+309
L=1  Nkbl=1  erefs: 0.17977+309
L=2  Nkbl=1  erefs: 0.17977+309
L=3  Nkbl=1  erefs: 0.17977+309
===============================================================================
</basis_specs>

atom: Called for F                     (Z =   9)

read_vps: Pseudopotential generation method:
read_vps: ATM 3.2.2 Troullier-Martins                       
Total valence charge:    7.00000

xc_check: Exchange-correlation functional:
xc_check: GGA Perdew, Burke & Ernzerhof 1996
V l=0 = -2*Zval/r beyond r=  1.3199
V l=1 = -2*Zval/r beyond r=  1.3199
V l=2 = -2*Zval/r beyond r=  1.3199
V l=3 = -2*Zval/r beyond r=  1.3199
All V_l potentials equal beyond r=  1.3199
This should be close to max(r_c) in ps generation
All pots = -2*Zval/r beyond r=  1.3199

VLOCAL1: 99.0% of the norm of Vloc inside     24.916 Ry
VLOCAL1: 99.9% of the norm of Vloc inside     56.784 Ry
atom: Maximum radius for 4*pi*r*r*local-pseudopot. charge    1.61221
atom: Maximum radius for r*vlocal+2*Zval:    1.38760
GHOST: No ghost state for L =  0
GHOST: No ghost state for L =  1
GHOST: No ghost state for L =  2
GHOST: No ghost state for L =  3

KBgen: Kleinman-Bylander projectors: 
   l= 0   rc=  1.495695   el= -2.197581   Ekb=  5.601452   kbcos=  0.238748
   l= 1   rc=  1.458760   el= -0.816694   Ekb= -9.171639   kbcos= -0.518972
   l= 2   rc=  1.552860   el=  0.001997   Ekb= -1.845583   kbcos= -0.004774
   l= 3   rc=  1.592177   el=  0.003102   Ekb= -0.701684   kbcos= -0.000616

KBgen: Total number of  Kleinman-Bylander projectors:   16
atom: -------------------------------------------------------------------------

atom: SANKEY-TYPE ORBITALS:
atom: Selected multiple-zeta basis: split     

SPLIT: Orbitals with angular momentum L= 0

SPLIT: Basis orbitals for state 2s

SPLIT: PAO cut-off radius determined from an
SPLIT: energy shift=  0.020000 Ry

   izeta = 1
                 lambda =    1.000000
                     rc =    3.012240
                 energy =   -2.180114
                kinetic =    2.050927
    potential(screened) =   -4.231041
       potential(ionic) =  -15.028689

   izeta = 2
                 rmatch =    2.203728
              splitnorm =    0.150000
                 energy =   -1.860487
                kinetic =    3.102500
    potential(screened) =   -4.962987
       potential(ionic) =  -16.601125

SPLIT: Orbitals with angular momentum L= 1

SPLIT: Basis orbitals for state 2p

SPLIT: PAO cut-off radius determined from an
SPLIT: energy shift=  0.020000 Ry

   izeta = 1
                 lambda =    1.000000
                     rc =    3.588372
                 energy =   -0.798309
                kinetic =    6.054328
    potential(screened) =   -6.852638
       potential(ionic) =  -17.288549

   izeta = 2
                 rmatch =    2.259523
              splitnorm =    0.150000
                 energy =   -0.439465
                kinetic =    8.943362
    potential(screened) =   -9.382827
       potential(ionic) =  -20.998650

POLgen: Perturbative polarization orbital with L=  2

POLgen: Polarization orbital for state 2p

   izeta = 1
                     rc =    3.588372
                 energy =    3.121679
                kinetic =    6.160101
    potential(screened) =   -3.038422
       potential(ionic) =  -11.529161
atom: Total number of Sankey-type orbitals: 13

atm_pop: Valence configuration (for local Pseudopot. screening):
 2s( 2.00)                                                            
 2p( 5.00)                                                            
Vna: chval, zval:    7.00000   7.00000

Vna:  Cut-off radius for the neutral-atom potential:   3.588372

atom: _________________________________________________________________________

<basis_specs>
===============================================================================
Ag                   Z=  47    Mass=  107.87        Charge= 0.17977+309
Lmxo=2 Lmxkb= 3    BasisType=split      Semic=F
L=0  Nsemic=0  Cnfigmx=5
          n=1  nzeta=2  polorb=1
            splnorm:   0.15000    
               vcte:    0.0000    
               rinn:    0.0000    
                rcs:    0.0000      0.0000    
            lambdas:   1.00000     1.00000    
L=1  Nsemic=0  Cnfigmx=5
L=2  Nsemic=0  Cnfigmx=4
          n=1  nzeta=2  polorb=0
            splnorm:   0.15000    
               vcte:    0.0000    
               rinn:    0.0000    
                rcs:    0.0000      0.0000    
            lambdas:   1.00000     1.00000    
-------------------------------------------------------------------------------
L=0  Nkbl=1  erefs: 0.17977+309
L=1  Nkbl=1  erefs: 0.17977+309
L=2  Nkbl=1  erefs: 0.17977+309
L=3  Nkbl=1  erefs: 0.17977+309
===============================================================================
</basis_specs>

atom: Called for Ag                    (Z =  47)

read_vps: Pseudopotential generation method:
read_vps: ATM 3.2.2 Troullier-Martins                       
Total valence charge:   11.00000

xc_check: Exchange-correlation functional:
xc_check: GGA Perdew, Burke & Ernzerhof 1996
V l=0 = -2*Zval/r beyond r=  2.4592
V l=1 = -2*Zval/r beyond r=  2.6507
V l=2 = -2*Zval/r beyond r=  2.4592
V l=3 = -2*Zval/r beyond r=  2.4592
All V_l potentials equal beyond r=  2.6507
This should be close to max(r_c) in ps generation
All pots = -2*Zval/r beyond r=  2.6507

VLOCAL1: 99.0% of the norm of Vloc inside      6.178 Ry
VLOCAL1: 99.9% of the norm of Vloc inside     14.079 Ry
atom: Maximum radius for 4*pi*r*r*local-pseudopot. charge    3.19739
atom: Maximum radius for r*vlocal+2*Zval:    2.82168
GHOST: No ghost state for L =  0
GHOST: No ghost state for L =  1
GHOST: No ghost state for L =  2
GHOST: No ghost state for L =  3

KBgen: Kleinman-Bylander projectors: 
   l= 0   rc=  2.966357   el= -0.323666   Ekb=  3.565490   kbcos=  0.247453
   l= 1   rc=  3.003670   el= -0.054265   Ekb=  1.619308   kbcos=  0.223076
   l= 2   rc=  2.786631   el= -0.547066   Ekb= -7.840816   kbcos= -0.714112
   l= 3   rc=  3.079709   el=  0.002953   Ekb= -2.732950   kbcos= -0.012571

KBgen: Total number of  Kleinman-Bylander projectors:   16
atom: -------------------------------------------------------------------------

atom: SANKEY-TYPE ORBITALS:
atom: Selected multiple-zeta basis: split     

SPLIT: Orbitals with angular momentum L= 0

SPLIT: Basis orbitals for state 5s

SPLIT: PAO cut-off radius determined from an
SPLIT: energy shift=  0.020000 Ry

   izeta = 1
                 lambda =    1.000000
                     rc =    6.684855
                 energy =   -0.305483
                kinetic =    0.327133
    potential(screened) =   -0.632616
       potential(ionic) =   -8.088030

   izeta = 2
                 rmatch =    6.279837
              splitnorm =    0.150000
                 energy =   -0.253539
                kinetic =    0.499634
    potential(screened) =   -0.753173
       potential(ionic) =   -8.691029

SPLIT: Orbitals with angular momentum L= 2

SPLIT: Basis orbitals for state 4d

SPLIT: PAO cut-off radius determined from an
SPLIT: energy shift=  0.020000 Ry

   izeta = 1
                 lambda =    1.000000
                     rc =    3.954440
                 energy =   -0.527442
                kinetic =    6.210364
    potential(screened) =   -6.737807
       potential(ionic) =  -18.733043

   izeta = 2
                 rmatch =    2.490121
              splitnorm =    0.150000
                 energy =   -0.148928
                kinetic =    8.576261
    potential(screened) =   -8.725189
       potential(ionic) =  -21.658221

POLgen: Perturbative polarization orbital with L=  1

POLgen: Polarization orbital for state 5s

   izeta = 1
                     rc =    6.684855
                 energy =   -0.001728
                kinetic =    0.597115
    potential(screened) =   -0.598843
       potential(ionic) =   -7.554613
atom: Total number of Sankey-type orbitals: 15

atm_pop: Valence configuration (for local Pseudopot. screening):
 5s( 1.00)                                                            
 5p( 0.00)                                                            
 4d(10.00)                                                            
Vna: chval, zval:   11.00000  11.00000

Vna:  Cut-off radius for the neutral-atom potential:   6.684855

atom: _________________________________________________________________________

prinput: Basis input ----------------------------------------------------------

PAO.BasisType split     

%block ChemicalSpeciesLabel
    1    1 H                       # Species index, atomic number, species label
    2    6 C                       # Species index, atomic number, species label
    3    9 F                       # Species index, atomic number, species label
    4   47 Ag                      # Species index, atomic number, species label
%endblock ChemicalSpeciesLabel

%block PAO.Basis                 # Define Basis set
H                     1                    # Species label, number of l-shells
 n=1   0   2 P   1                   # n, l, Nzeta, Polarization, NzetaPol
   4.709      3.760   
   1.000      1.000   
C                     2                    # Species label, number of l-shells
 n=2   0   2                         # n, l, Nzeta 
   4.088      3.347   
   1.000      1.000   
 n=2   1   2 P   1                   # n, l, Nzeta, Polarization, NzetaPol
   4.870      3.475   
   1.000      1.000   
F                     2                    # Species label, number of l-shells
 n=2   0   2                         # n, l, Nzeta 
   3.012      2.204   
   1.000      1.000   
 n=2   1   2 P   1                   # n, l, Nzeta, Polarization, NzetaPol
   3.588      2.260   
   1.000      1.000   
Ag                    2                    # Species label, number of l-shells
 n=5   0   2 P   1                   # n, l, Nzeta, Polarization, NzetaPol
   6.685      6.280   
   1.000      1.000   
 n=4   2   2                         # n, l, Nzeta 
   3.954      2.490   
   1.000      1.000   
%endblock PAO.Basis

prinput: ----------------------------------------------------------------------

Dumping basis to NetCDF file H.ion.nc
Dumping basis to NetCDF file C.ion.nc
Dumping basis to NetCDF file F.ion.nc
Dumping basis to NetCDF file Ag.ion.nc
coor:   Atomic-coordinates input format  =     Cartesian coordinates
coor:                                          (in Angstroms)

siesta: WARNING: XV file not found

siesta: Atomic coordinates (Bohr) and species
siesta:      0.82581  41.55509   5.89217  2        1
siesta:      2.52090  42.21083   4.88683  1        2
siesta:      1.11494  39.56332   6.37594  1        3
siesta:      0.55747  42.66247   7.60993  1        4
siesta:     41.07888  41.74029   4.20653  2        5
siesta:     41.89713  41.48517   1.81225  3        6
siesta:     39.68426  39.62946   4.66385  3        7
siesta:     39.32522  44.08166   4.29913  2        8
siesta:     38.78475  44.36701   6.26067  1        9
siesta:     40.44204  45.71060   3.72087  1       10
siesta:     36.84023  44.14024   2.74577  2       11
siesta:     35.25663  42.32610   3.66607  3       12
siesta:     35.67993   0.11527   3.38261  3       13
siesta:     36.88747  44.03253  44.52763  2       14
siesta:     35.75552  45.61423  43.84544  1       15
siesta:     38.84523  44.37079  43.96828  1       16
siesta:     35.92182  41.67793  43.09333  2       17
siesta:     33.37636  41.54565  43.48639  3       18
siesta:     36.11835  42.25618  40.58188  3       19
siesta:     37.11991  39.06443  43.50151  2       20
siesta:     39.17026  39.28742  43.47884  1       21
siesta:     36.61913  38.48807   0.71054  1       22
siesta:     36.46606  36.83267  41.74974  2       23
siesta:     36.13158  34.76720  43.25018  3       24
siesta:     34.09445  37.23329  40.80676  3       25
siesta:     38.17059  36.12402  39.49340  2       26
siesta:     36.95361  35.05821  38.21028  1       27
siesta:     38.64869  37.88335  38.53909  1       28
siesta:     40.60834  34.58578  39.83733  2       29
siesta:     40.74251  33.71462  42.25240  3       30
siesta:     40.35512  32.43338  38.46350  3       31
siesta:      0.64251  35.69127  39.14758  2       32
siesta:      1.84815  34.06800  38.72617  1       33
siesta:      0.42330  36.71361  37.37691  1       34
siesta:      2.07681  37.44494  40.98062  2       35
siesta:      4.24622  38.21595  39.82032  3       36
siesta:      0.65574  39.56521  41.26975  3       37
siesta:      2.77412  36.47929  43.64324  2       38
siesta:      1.07525  36.77409   0.10960  1       39
siesta:      3.08025  34.42893  43.51285  1       40
siesta:      4.94164  37.66982   0.50834  2       41
siesta:      4.49566  40.21717   0.58582  3       42
siesta:      4.67707  36.85156   2.94419  3       43
siesta:      7.74977  37.34478  44.49362  2       44
siesta:      8.17874  38.74885  43.08010  1       45
siesta:      8.83825  37.77753   1.50989  1       46
siesta:      8.73243  34.76342  43.53364  2       47
siesta:      7.78945  32.95873   0.43086  3       48
siesta:      7.59859  34.29476  41.26975  3       49
siesta:     11.59725  34.26075  43.23695  2       50
siesta:     12.52511  35.10168   0.18708  1       51
siesta:     11.85615  32.23118  43.40514  1       52
siesta:     12.99754  35.18294  40.84834  2       53
siesta:     11.76922  34.22862  38.80932  3       54
siesta:     12.70841  37.73218  40.69338  3       55
siesta:     15.82079  34.62925  40.55354  2       56
siesta:     16.78833  36.33189  41.18660  1       57
siesta:     16.33480  33.09857  41.86879  1       58
siesta:     16.93195  33.94327  37.94194  2       59
siesta:     16.02488  31.65481  37.19360  3       60
siesta:     15.94741  35.58923  36.22984  3       61
siesta:     19.80812  33.89981  37.53753  2       62
siesta:     20.16528  33.80532  35.52120  1       63
siesta:     20.51110  35.72151  38.17437  1       64
siesta:     21.52966  31.89859  38.80932  2       65
siesta:     23.72174  33.14203  39.36490  3       66
siesta:     20.52432  31.32600  41.08644  3       67
siesta:     22.23642  29.38903  37.49596  2       68
siesta:     20.49031  28.39693  37.09723  1       69
siesta:     23.09057  29.87091  35.68371  1       70
siesta:     24.02410  27.45395  38.73751  2       71
siesta:     22.55200  25.53210  39.59923  3       72
siesta:     25.38281  26.33712  36.85156  3       73
siesta:     25.83635  28.20795  40.90692  2       74
siesta:     24.80455  29.44761  42.20705  1       75
siesta:     26.25587  26.46185  41.92170  1       76
siesta:     28.42149  29.44006  40.27008  2       77
siesta:     28.17394  30.54743  37.95138  3       78
siesta:     28.75030  31.42805  41.88580  3       79
siesta:     30.86113  27.82623  40.19260  2       80
siesta:     30.87247  26.64515  41.86123  1       81
siesta:     30.65893  26.57901  38.57122  1       82
siesta:     33.52187  28.98841  39.96205  2       83
siesta:     34.54988  27.92260  37.83800  3       84
siesta:     33.37636  31.50553  39.34789  3       85
siesta:     35.56844  28.59157  42.01241  2       86
siesta:     36.30921  26.66783  41.79509  1       87
siesta:     37.08400  29.90493  41.49840  1       88
siesta:     35.02987  28.91093   0.17763  2       89
siesta:     32.78298  30.09579   0.48755  3       90
siesta:     34.60468  26.55822   1.09226  3       91
siesta:     36.97629  30.23941   1.87272  2       92
siesta:     38.58444  30.71751   0.70109  1       93
siesta:     36.12402  32.01764   2.48121  1       94
siesta:     38.01564  29.00731   4.31803  2       95
siesta:     36.01253  28.11158   5.65973  3       96
siesta:     39.41592  26.93806   3.64906  3       97
siesta:     39.63891  30.59279   6.15484  2       98
siesta:     38.37846  31.98552   7.03545  1       99
siesta:     40.30032  29.33801   7.65717  1      100
siesta:     41.98784  32.06867   5.14951  2      101
siesta:     41.23006  33.85257   3.44686  3      102
siesta:      0.28913  33.55021   7.06191  3      103
siesta:      1.67997  30.70617   3.92118  2      104
siesta:      1.02234  29.78210   2.22988  1      105
siesta:      3.00467  32.18961   3.35049  1      106
siesta:      3.26356  28.73897   5.38950  2      107
siesta:      2.50578  28.75975   7.83292  3      108
siesta:      2.61538  26.38626   4.52401  3      109
siesta:      6.19830  28.89959   5.40840  2      110
siesta:      6.74632  30.87247   5.20053  1      111
siesta:      6.82569  28.30811   7.27923  1      112
siesta:      7.73087  27.34624   3.46198  2      113
siesta:      6.83514  27.83946   1.10360  3      114
siesta:     10.09492  28.33834   3.44686  3      115
siesta:      7.96520  24.43417   3.68497  2      116
siesta:      6.27956  23.57245   2.86861  1      117
siesta:      9.53367  23.93339   2.48121  1      118
siesta:      8.39417  23.20396   6.28145  2      119
siesta:     10.39728  24.36236   7.40017  3      120
siesta:      6.38917  23.80489   7.76300  3      121
siesta:      8.78723  20.29945   6.54223  2      122
siesta:      9.87760  19.98764   8.24488  1      123
siesta:      6.92207  19.48119   6.91451  1      124
siesta:      9.98532  18.69885   4.40117  2      125
siesta:      9.37494  16.26299   4.91896  3      126
siesta:      8.69652  19.17506   2.22232  3      127
siesta:     12.82747  18.80278   3.73788  2      128
siesta:     13.25832  17.04912   2.74955  1      129
siesta:     13.07313  20.37692   2.41318  1      130
siesta:     14.87971  19.11270   5.81091  2      131
siesta:     15.18773  21.64493   6.27767  3      132
siesta:     14.01232  18.19429   8.06346  3      133
siesta:     17.56879  18.02044   5.42730  2      134
siesta:     18.19051  18.56468   3.52245  1      135
siesta:     18.77444  18.97664   6.78601  1      136
siesta:     18.09980  15.13671   5.62950  2      137
siesta:     17.18896  14.00099   3.49599  3      138
siesta:     20.66983  14.91939   5.43674  3      139
siesta:     17.27399  13.59281   7.97843  2      140
siesta:     18.62515  12.05457   8.19575  1      141
siesta:     17.47052  14.84947   9.63194  1      142
siesta:     14.62460  12.37204   8.13338  2      143
siesta:     13.09203  13.51344   6.40239  3      144
siesta:     14.83625  10.00043   7.17718  3      145
siesta:     13.17140  12.28700  10.67507  2      146
siesta:     13.20919  14.19752  11.47442  1      147
siesta:     11.20608  11.82780  10.24043  1      148
siesta:     13.96130  10.43129  12.77644  2      149
siesta:     13.61359   8.04646  11.87504  3      150
siesta:     16.49543  10.66940  13.09770  3      151
siesta:     12.68952  10.58814  15.42395  2      152
siesta:     12.20575  12.54590  15.77166  1      153
siesta:     10.93585   9.53745  15.27466  1      154
siesta:     14.10870   9.62249  17.78233  2      155
siesta:     12.30212   8.95920  19.48119  3      156
siesta:     15.29923   7.39450  17.21919  3      157
siesta:     16.01733  11.36104  19.15616  2      158
siesta:     17.68217  11.62560  17.94863  1      159
siesta:     15.09703  13.18273  19.35080  1      160
siesta:     17.01888  10.67696  21.82446  2      161
siesta:     15.81512  12.24732  23.43828  3      162
siesta:     16.25354   8.33559  22.50665  3      163
siesta:     19.84402  10.90750  22.44429  2      164
siesta:     20.46385  12.78967  21.89816  1      165
siesta:     20.01221  10.75444  24.49086  1      166
siesta:     21.73186   9.03289  21.24998  2      167
siesta:     22.31956   7.34159  23.10569  3      168
siesta:     20.57346   7.57969  19.46986  3      169
siesta:     24.28677   9.97776  20.19173  2      170
siesta:     25.09179  11.20230  21.63926  1      171
siesta:     25.52076   8.32047  20.03677  1      172
siesta:     24.43606  11.46119  17.68028  2      173
siesta:     22.97152  13.55501  17.94107  3      174
siesta:     26.81144  12.40984  17.50454  3      175
siesta:     23.80300  10.28578  15.08002  2      176
siesta:     21.75643  10.02500  14.99687  1      177
siesta:     24.32267  11.66528  13.61359  1      178
siesta:     24.99164   7.75355  14.27689  2      179
siesta:     27.45395   7.74032  14.99120  3      180
siesta:     23.93528   5.87516  15.65072  3      181
siesta:     24.97652   6.85026  11.51789  2      182
siesta:     26.59980   7.76867  10.63349  1      183
siesta:     25.34880   4.84148  11.52355  1      184
siesta:     22.66349   7.32647   9.82091  2      185
siesta:     20.47897   7.23010  11.16262  3      186
siesta:     22.82979   9.76044   9.02534  3      187
siesta:     22.32334   5.61816   7.48332  2      188
siesta:     23.82568   6.13405   6.13783  1      189
siesta:     22.63515   3.67174   8.03701  1      190
siesta:     19.83079   5.69753   5.97154  2      191
siesta:     19.58702   8.11260   5.06447  3      192
siesta:     20.15394   4.28779   3.84181  3      193
siesta:     17.28911   4.90384   7.17907  2      194
siesta:     16.89794   6.28334   8.66818  1      195
siesta:     15.83402   5.14951   5.72587  1      196
siesta:     16.91306   2.21854   8.33559  2      197
siesta:     14.63971   1.36627   7.46631  3      198
siesta:     18.63649   0.63495   7.23387  3      199
siesta:     16.92439   1.80847  11.19663  2      200
siesta:     16.45196   3.59237  12.09992  1      201
siesta:     15.40505   0.51023  11.62560  1      202
siesta:     19.28844   0.71999  12.54401  2      203
siesta:     21.24998   2.35460  12.17362  3      204
siesta:     18.88026   0.91841  15.07624  3      205
siesta:     20.33535  44.30087  12.00921  2      206
siesta:     21.25754  44.37835  10.16106  1      207
siesta:     21.76776  44.02308  13.44919  1      208
siesta:     18.63082  41.93682  12.03567  2      209
siesta:     17.72942  41.67037  14.38838  3      210
siesta:     16.56535  42.46216  10.59570  3      211
siesta:     19.61348  39.34600  11.11159  2      212
siesta:     18.99553  37.93438  12.46464  1      213
siesta:     18.63838  39.00207   9.34281  1      214
siesta:     22.43673  38.76586  10.58436  2      215
siesta:     22.50665  36.39236   9.61304  3      216
siesta:     23.16238  40.27008   8.63227  3      217
siesta:     24.52865  38.93404  12.64983  2      218
siesta:     26.24453  39.40647  11.66150  1      219
siesta:     24.06756  40.53842  13.86871  1      220
siesta:     25.08046  36.67015  14.41484  2      221
siesta:     22.78255  35.65537  15.03089  3      222
siesta:     26.23130  34.83334  13.01077  3      223
siesta:     26.66972  37.05565  16.83558  2      224
siesta:     28.65960  37.08778  16.25543  1      225
siesta:     26.17839  38.92648  17.63115  1      226
siesta:     26.45807  35.15459  19.04467  2      227
siesta:     27.73174  36.17315  21.03833  3      228
siesta:     24.02221  35.09790  19.84402  3      229
siesta:     27.38592  32.39181  18.62893  2      230
siesta:     26.68861  31.72851  16.80156  1      231
siesta:     29.44006  32.49196  18.44184  1      232
siesta:     26.80956  30.28476  20.57535  2      233
siesta:     28.28921  28.27220  20.04622  3      234
siesta:     27.72229  31.05577  22.87703  3      235
siesta:     24.12614  29.22652  21.04022  2      236
siesta:     24.35102  27.53899  22.17783  1      237
siesta:     23.12459  30.60980  22.17972  1      238
siesta:     22.37059  28.44228  18.82357  2      239
siesta:     23.78410  28.11536  16.74109  3      240
siesta:     21.42005  26.11980  19.34702  3      241
siesta:     20.05945  30.07122  17.94863  2      242
siesta:     20.81534  31.86080  17.29100  1      243
siesta:     19.32435  29.09801  16.29134  1      244
siesta:     17.78422  30.59657  19.70229  2      245
siesta:     16.76377  28.33834  20.33724  3      246
siesta:     18.63649  31.58301  21.91327  3      247
siesta:     15.57702  32.27087  18.80089  2      248
siesta:     14.40917  31.13703  17.52155  1      249
siesta:     14.41673  32.69039  20.45818  1      250
siesta:     16.04567  34.83145  17.49320  2      251
siesta:     16.71463  34.28720  15.06868  3      252
siesta:     13.77233  36.02386  17.23431  3      253
siesta:     18.01288  36.74952  18.49287  2      254
siesta:     19.57001  35.70450  19.30545  1      255
siesta:     18.71019  37.76997  16.82046  1      256
siesta:     17.32313  38.81688  20.44496  2      257
siesta:     15.76410  40.51196  19.30545  3      258
siesta:     15.89638  37.71895  22.28366  3      259
siesta:     19.42072  40.35134  21.77532  2      260
siesta:     18.51365  41.39825  23.28899  1      261
siesta:     20.70574  39.01530  22.62381  1      262
siesta:     21.07612  42.26941  20.30889  2      263
siesta:     23.42505  42.24106  21.30478  3      264
siesta:     21.44462  41.30943  17.93729  3      265
siesta:     20.25787  45.05865  20.01599  2      266
siesta:     21.53533  45.88257  18.60247  1      267
siesta:     18.34358  45.09455  19.21663  1      268
siesta:     20.25031   0.64818  22.27988  2      269
siesta:     20.42228  45.56132  24.48141  3      270
siesta:     22.42539   2.02201  22.17217  3      271
siesta:     18.06957   2.55869  22.63704  2      272
siesta:     18.74042   4.02134  23.88993  1      273
siesta:     17.72942   3.48655  20.80589  1      274
siesta:     15.50143   1.66674  23.64804  2      275
siesta:     13.68351   2.70798  22.17406  3      276
siesta:     15.28222  45.39502  23.27388  3      277
siesta:     14.74176   2.22988  26.42405  2      278
siesta:     16.38204   1.75745  27.57489  1      279
siesta:     14.43373   4.25944  26.55444  1      280
siesta:     12.48165   0.88439  27.70151  2      281
siesta:     13.39627  44.91692  28.66527  3      282
siesta:     11.95063   2.23366  29.78399  3      283
siesta:      9.97209   0.33259  26.30878  2      284
siesta:     10.49554  45.87312  24.45118  1      285
siesta:      9.03856  45.05676  27.31978  1      286
siesta:      7.93685   2.37161  25.84390  2      287
siesta:      9.07636   4.62416  25.32990  3      288
siesta:      6.79924   1.74422  23.61781  3      289
siesta:      5.81280   2.87805  27.79032  2      290
siesta:      6.71987   3.70197  29.43250  1      291
siesta:      4.57125   4.31803  27.00231  1      292
siesta:      4.07047   0.71054  28.72196  2      293
siesta:      5.23832  45.77485  30.66460  3      294
siesta:      1.98988   1.82737  29.77265  3      295
siesta:      3.12750  44.84322  26.91727  2      296
siesta:      2.47743  45.78052  25.20518  1      297
siesta:      4.77534  43.70182  26.45429  1      298
siesta:      1.07714  42.96105  27.74686  2      299
siesta:     41.38313  44.16670  27.76198  3      300
siesta:      0.82770  41.29998  25.80989  3      301
siesta:      1.33415  41.40203  30.19217  2      302
siesta:      3.14262  40.47039  30.11847  1      303
siesta:      1.41918  42.76452  31.73796  1      304
siesta:     41.97650  39.33089  30.88570  2      305
siesta:     42.18626  37.44305  29.15282  3      306
siesta:      0.26267  38.14036  33.02676  3      307
siesta:     39.14191  39.91292  31.24285  2      308
siesta:     38.34634  40.51196  29.42494  1      309
siesta:     38.23106  38.14603  31.84190  1      310
siesta:     38.35012  41.94816  33.17038  2      311
siesta:     39.55576  41.37746  35.36813  3      312
siesta:     39.32333  44.22339  32.44094  3      313
siesta:     35.56466  42.27886  33.85635  2      314
siesta:     34.52720  40.89180  32.73763  1      315
siesta:     35.32844  41.78186  35.83111  1      316
siesta:     34.22295  44.81298  33.40659  2      317
siesta:     34.34579  45.24573  30.87436  3      318
siesta:     31.73985  44.36323  33.85635  3      319
siesta:     35.07333   0.99211  34.84278  2      320
siesta:     36.34323   0.36283  36.35646  1      321
siesta:     36.18827   2.09193  33.48974  1      322
siesta:     33.09101   2.82514  35.95772  2      323
siesta:     34.17760   5.15706  35.94638  3      324
siesta:     31.15782   3.01411  34.31366  3      325
siesta:     32.02520   2.34137  38.63925  2      326
siesta:     32.00063   0.30236  38.89436  1      327
siesta:     33.36502   3.19931  39.99229  1      328
siesta:     29.37769   3.34482  39.37057  2      329
siesta:     29.10557   5.61060  38.20650  3      330
siesta:     27.58623   1.83304  38.35012  3      331
siesta:     28.59535   3.75867  42.18059  2      332
siesta:     29.65548   5.38761  42.83444  1      333
siesta:     26.62436   4.30858  42.12768  1      334
siesta:     28.79566   1.73666  44.23284  2      335
siesta:     30.96884   0.40629  43.88513  3      336
siesta:     29.16793   2.93853   1.78768  3      337
siesta:     26.64326  46.03942  44.57488  2      338
siesta:     24.84991   0.78235  44.28197  1      339
siesta:     26.93050  44.68826  43.02908  1      340
siesta:     26.38437  44.45205   2.32247  2      341
siesta:     24.67227  42.61523   1.80091  3      342
siesta:     28.54999  43.07254   2.69475  3      343
siesta:     25.53777  45.66714   4.84715  2      344
siesta:     25.18817   1.42674   4.42196  1      345
siesta:     23.71985  44.80164   5.33470  1      346
siesta:     27.22530  45.54620   7.21498  2      347
siesta:     25.84390   0.33826   9.13305  3      348
siesta:     27.42750  43.08010   7.85182  3      349
siesta:     29.91627   0.42330   7.27356  2      350
siesta:     30.99152  45.52541   8.60582  1      351
siesta:     30.77042   0.10582   5.40651  1      352
siesta:     30.42460   3.22954   7.94063  2      353
siesta:     28.82022   4.70542   6.58759  3      354
siesta:     29.65926   3.65284  10.35759  3      355
siesta:     33.11935   4.28779   7.57969  2      356
siesta:     33.70706   3.81725   5.63139  1      357
siesta:     32.95873   6.32492   7.68930  1      358
siesta:     35.27742   3.48844   9.43163  2      359
siesta:     34.26264   2.67774  11.62749  3      360
siesta:     36.38102   1.34171   8.43952  3      361
siesta:     37.44116   5.36304  10.05524  2      362
siesta:     38.29532   5.96776   8.27133  1      363
siesta:     36.58511   7.04490  10.91317  1      364
siesta:     39.59167   4.54668  11.85426  2      365
siesta:     40.78786   6.68207  12.66684  3      366
siesta:     38.55988   3.60371  14.03311  3      367
siesta:     41.60990   2.62105  11.01333  2      368
siesta:     42.49618   1.92941  12.71975  1      369
siesta:     40.62535   1.03557  10.16673  1      370
siesta:      1.20943   3.35993   9.23887  2      371
siesta:      1.03557   1.79713   7.20175  3      372
siesta:      0.74833   5.69564   8.31291  3      373
siesta:      3.94197   3.35427  10.19319  2      374
siesta:      4.03079   4.70164  11.75599  1      375
siesta:      4.29346   1.48910  10.98309  1      376
siesta:      6.18508   3.94386   8.42251  2      377
siesta:      5.34793   4.44653   6.04524  3      378
siesta:      7.15262   6.21909   9.18218  3      379
siesta:      8.46409   2.10327   8.27511  2      380
siesta:      9.74532   2.86861   6.85593  1      381
siesta:      9.46564   2.19964  10.08925  1      382
siesta:      8.15606  45.54242   7.57025  2      383
siesta:      5.81280  45.32132   6.55357  3      384
siesta:      9.75855  45.05865   5.61627  3      385
siesta:      8.50188  43.39947   9.53934  2      386
siesta:     10.48609  43.37301  10.04390  1      387
siesta:      7.46820  43.98906  11.22498  1      388
siesta:      7.66473  40.68393   8.88172  2      389
siesta:      5.14573  40.49307   9.45241  3      390
siesta:      7.72709  40.35323   6.32870  3      391
siesta:      8.95164  38.38791  10.15539  2      392
siesta:      8.34692  38.32744  12.12071  1      393
siesta:      8.17118  36.71928   9.21242  1      394
siesta:     11.83536  38.06288  10.19886  2      395
siesta:     12.92384  39.31010   8.24299  3      396
siesta:     12.69707  39.24018  12.31346  3      397
siesta:     13.04667  35.38703  10.18563  2      398
siesta:     15.08380  35.65726  10.15539  1      399
siesta:     12.57424  34.52720  11.99032  1      400
siesta:     12.40984  33.40848   8.09937  2      401
siesta:     10.08547  32.45795   8.59070  3      402
siesta:     12.12449  34.63680   5.87516  3      403
siesta:     14.10114  31.08412   7.56836  2      404
siesta:     12.84069  29.46462   7.37749  1      405
siesta:     14.93829  31.41104   5.71831  1      406
siesta:     16.26488  30.25264   9.32580  2      407
siesta:     17.85036  32.24441   9.58280  3      408
siesta:     15.31246  29.87280  11.66339  3      409
siesta:     17.82201  27.91316   8.53779  2      410
siesta:     16.55590  26.29744   8.45464  1      411
siesta:     18.50421  28.20795   6.62727  1      412
siesta:     20.09158  27.06278  10.16862  2      413
siesta:     19.27332  26.34846  12.51566  3      414
siesta:     20.94006  24.83479   9.22376  3      415
siesta:     22.42917  28.76542  10.50688  2      416
siesta:     21.77910  30.41326  11.57836  1      417
siesta:     23.78788  27.75631  11.69930  1      418
siesta:     23.83890  29.74619   8.16551  2      419
siesta:     23.47986  28.09457   6.24933  3      420
siesta:     22.63137  31.86835   7.39261  3      421
siesta:     26.70751  30.33957   8.34692  2      422
siesta:     27.05711  31.91749   7.10537  1      423
siesta:     27.12325  30.96317  10.24610  1      424
siesta:     28.66338  28.29110   7.73654  2      425
siesta:     30.92727  29.18305   8.50566  3      426
siesta:     28.23441  26.24075   9.24643  3      427
siesta:     29.04132  27.39348   4.99077  2      428
siesta:     27.68450  28.39126   3.79268  1      429
siesta:     30.94428  28.02087   4.47676  1      430
siesta:     28.92038  24.53999   4.33125  2      431
siesta:     29.25108  24.43984   1.79902  3      432
siesta:     31.01798  23.46474   5.32147  3      433
siesta:     26.61491  22.84491   5.08148  2      434
siesta:     27.38403  21.16683   6.01878  1      435
siesta:     25.45462  23.85780   6.47798  1      436
siesta:     24.78566  21.89438   3.03490  2      437
siesta:     26.08201  20.38070   1.41730  3      438
siesta:     23.11703  20.29567   4.20653  3      439
siesta:     23.26443  23.80867   1.40218  2      440
siesta:     24.08268  25.67950   1.68942  1      441
siesta:     23.59891  23.30222  44.12323  1      442
siesta:     20.37126  24.18661   1.70453  2      443
siesta:     19.19774  22.20807   0.57070  3      444
siesta:     19.75332  24.01843   4.18197  3      445
siesta:     19.13159  26.65082   0.66896  2      446
siesta:     19.95174  28.21173   1.69320  1      447
siesta:     19.66072  26.80578  43.39569  1      448
siesta:     16.24220  26.99853   0.83337  2      449
siesta:     15.48442  26.38626   3.21820  3      450
siesta:     15.73954  29.50997   0.64818  3      451
siesta:     14.42995  25.59257  43.70749  2      452
siesta:     14.96286  23.60458  43.71883  1      453
siesta:     12.58180  25.70973  44.57488  1      454
siesta:     14.14650  26.40893  40.88235  2      455
siesta:     13.70052  28.92227  40.81621  3      456
siesta:     16.46519  26.14815  39.79954  3      457
siesta:     12.19819  25.12014  39.15892  2      458
siesta:     12.47220  25.83824  37.25974  1      459
siesta:     12.61582  23.08868  39.13813  1      460
siesta:      9.34092  25.36391  39.72584  2      461
siesta:      8.05024  24.02221  37.93816  3      462
siesta:      8.86471  24.14315  41.93304  3      463
siesta:      8.00488  27.97552  39.82221  2      464
siesta:      8.58692  28.90526  41.57588  1      465
siesta:      8.79101  29.07723  38.24618  1      466
siesta:      5.10037  28.23819  39.64080  2      467
siesta:      4.44653  30.51342  40.62346  3      468
siesta:      4.57881  28.40637  37.12179  3      469
siesta:      3.33915  26.26342  40.85590  2      470
siesta:      3.83048  24.42283  40.12457  1      471
siesta:      3.79457  26.24831  42.89113  1      472
siesta:      0.44787  26.50153  40.65936  2      473
siesta:     42.05209  24.53621  42.02375  3      474
siesta:     42.29776  28.56700  42.00485  3      475
siesta:     41.61368  26.50720  38.11201  2      476
siesta:     39.64269  26.89648  38.55988  1      477
siesta:     42.30154  28.13425  36.99329  1      478
siesta:     41.66470  24.16394  36.37724  2      479
siesta:      1.52123  23.31734  36.19772  3      480
siesta:     40.45905  22.26098  37.63958  3      481
siesta:     40.51385  24.26031  33.69005  2      482
siesta:     39.87135  22.32712  33.28565  1      483
siesta:     38.85845  25.49053  33.79588  1      484
siesta:     42.05020  25.13904  31.35813  2      485
siesta:      1.16407  23.33813  30.71940  3      486
siesta:     40.43638  25.16171  29.37391  3      487
siesta:      0.89762  27.69017  31.38080  2      488
siesta:      1.88784  27.85268  33.18549  1      489
siesta:      2.32247  27.54655  29.89737  1      490
siesta:     42.00674  30.18650  30.94617  2      491
siesta:     40.20205  30.32256  32.76975  3      492
siesta:      0.98833  32.15181  31.48852  3      493
siesta:     40.76897  30.79121  28.37047  2      494
siesta:     38.97184  29.79721  28.34401  1      495
siesta:     40.30409  32.82834  28.42338  1      496
siesta:     42.22406  30.31500  25.87225  2      497
siesta:      0.41196  27.86780  25.79099  3      498
siesta:     40.53464  30.46996  23.92583  3      499
siesta:      1.95398  31.91938  25.18439  2      500
siesta:      2.83648  32.46362  26.95128  1      501
siesta:      3.27112  30.63436  24.24898  1      502
siesta:      1.73288  34.29854  23.51198  2      503
siesta:      1.48155  33.56533  21.06668  3      504
siesta:     42.11634  35.48718  24.08079  3      505
siesta:      3.83237  36.31677  23.62159  2      506
siesta:      3.35993  37.74918  22.20618  1      507
siesta:      3.69253  37.18416  25.50186  1      508
siesta:      6.62349  35.57222  23.20396  2      509
siesta:      7.13939  33.58801  24.71196  3      510
siesta:      6.83892  34.65381  20.79078  3      511
siesta:      8.76455  37.49974  23.61970  2      512
siesta:      8.75510  37.93816  25.63226  1      513
siesta:     10.53145  36.50952  23.23419  1      514
siesta:      8.86660  40.00174  22.14382  2      515
siesta:      6.87672  41.40392  22.93562  3      516
siesta:     10.91695  41.22250  23.07357  3      517
siesta:      8.95542  40.07166  19.22608  2      518
siesta:     10.51633  38.90948  18.58168  1      519
siesta:      7.23576  39.13057  18.57413  1      520
siesta:      9.07825  42.61523  17.82768  2      521
siesta:      8.38472  42.14847  15.39749  3      522
siesta:      7.20364  44.12323  18.74609  3      523
siesta:     11.56702  44.11567  17.74265  2      524
siesta:     12.28511  44.25173  19.65694  1      525
siesta:     12.87282  42.96861  16.63338  1      526
siesta:     11.60292   0.54046  16.57668  2      527
siesta:     14.06902   1.30958  16.60314  3      528
siesta:     11.09648   0.34015  14.06335  3      529
siesta:     10.02878   2.70042  17.71808  2      530
siesta:      9.24265   1.99177  19.50387  1      531
siesta:     11.34214   4.21031  18.15083  1      532
siesta:      7.84048   3.87772  16.20063  2      533
siesta:      8.89305   5.09848  14.17673  3      534
siesta:      6.42885   1.98043  15.17262  3      535
siesta:      6.00366   5.77123  17.46675  2      536
siesta:      6.98632   6.55357  19.10514  1      537
siesta:      5.75233   7.31891  16.15339  1      538
siesta:      3.33726   4.93786  18.33980  2      539
siesta:      2.01823   4.29157  16.21764  3      540
siesta:      3.52434   2.75522  19.63615  3      541
siesta:      1.56280   6.73688  19.80434  2      542
siesta:      1.06959   8.26189  18.50421  1      543
siesta:     42.40925   5.66918  20.18984  1      544
siesta:      2.40940   7.98599  22.30256  2      545
siesta:      1.07903   6.87672  24.19228  3      546
siesta:      4.81502   7.32269  22.85625  3      547
siesta:      2.22610  10.86593  22.68050  2      548
siesta:      0.22110  11.41206  22.69940  1      549
siesta:      3.03301  11.25143  24.51543  1      550
siesta:      3.51489  12.63282  20.75865  2      551
siesta:      4.92841  11.14372  19.19585  3      552
siesta:      1.69509  13.58147  19.18829  3      553
siesta:      5.16651  14.84191  21.65438  2      554
siesta:      4.99077  16.33480  20.23709  1      555
siesta:      4.36149  15.57324  23.36458  1      556
siesta:      8.03890  14.43373  22.12870  2      557
siesta:      9.16140  13.93485  19.88938  3      558
siesta:      8.97242  16.73542  22.78444  3      559
siesta:      9.01778  12.43818  24.05622  2      560
siesta:      8.18063  10.62971  23.53655  1      561
siesta:     11.04545  12.33047  23.72363  1      562
siesta:      8.67763  12.78967  26.93995  2      563
siesta:     10.18752  14.74176  27.69017  3      564
siesta:      6.27956  13.64761  27.36136  3      565
siesta:      9.07069  10.59948  28.79944  2      566
siesta:      8.11260  11.11537  30.57011  1      567
siesta:      8.05780   8.94408  28.03221  1      568
siesta:     11.78623   9.71509  29.49108  2      569
siesta:     11.77300   7.15640  29.54777  3      570
siesta:     13.31313  10.25744  27.50875  3      571
siesta:     13.11848  10.69396  31.88536  2      572
siesta:     15.15183  10.42562  31.57356  1      573
siesta:     12.80101  12.72353  31.96473  1      574
siesta:     12.50810   9.64139  34.53098  2      575
siesta:     14.17295  10.73554  36.16937  3      576
siesta:     10.23665  10.63916  35.23396  3      577
siesta:     12.53078   6.76333  35.09979  2      578
siesta:     13.61170   5.81658  33.61257  1      579
siesta:     13.57391   6.48176  36.87235  1      580
siesta:     10.00232   5.32525  35.34356  2      581
siesta:      8.81558   6.26822  37.41470  3      582
siesta:      8.55290   6.11705  33.37447  3      583
siesta:      9.84548   2.40373  35.45128  2      584
siesta:      8.36960   1.99177  36.80054  1      585
siesta:      9.22754   1.77256  33.56911  1      586
siesta:     12.14338   0.73321  36.27520  2      587
siesta:     14.03122   1.07714  34.56877  3      588
siesta:     13.07691   1.74044  38.43893  3      589
siesta:     11.88071  44.11567  36.69472  2      590
siesta:     13.56824  43.20294  35.89914  1      591
siesta:     11.88827  43.77363  38.72995  1      592
siesta:      9.54879  42.66814  35.69505  2      593
siesta:      7.46064  43.59033  36.91770  3      594
siesta:      9.16140  43.30687  33.24408  3      595
siesta:      9.36927  39.74474  35.88780  2      596
siesta:     11.24199  38.95861  35.54387  1      597
siesta:      8.81369  39.26852  37.81910  1      598
siesta:      7.54001  38.30476  34.13981  2      599
siesta:      5.32147  39.58600  34.07556  3      600
siesta:      8.51889  38.45405  31.76631  3      601
siesta:      6.88994  35.50041  34.64814  2      602
siesta:      7.72331  34.98640  36.43582  1      603
siesta:      4.83392  35.39647  34.84467  1      604
siesta:      7.60426  33.47084  32.65637  2      605
siesta:      6.36082  31.32789  33.40848  3      606
siesta:      6.45342  34.12280  30.46996  3      607
siesta:     10.38027  32.76408  32.10268  2      608
siesta:     10.96042  33.91682  30.49074  1      609
siesta:     11.50844  33.33100  33.71462  1      610
siesta:     11.10215  30.00130  31.46962  2      611
siesta:     13.62871  29.88225  31.20506  3      612
siesta:     10.67318  28.60858  33.59367  3      613
siesta:      9.81524  28.57645  29.24352  2      614
siesta:      9.83036  26.59791  29.73296  1      615
siesta:      7.85937  29.14526  29.18872  1      616
siesta:     10.86593  28.86558  26.52421  2      617
siesta:     11.39505  31.34868  26.02910  3      618
siesta:     13.18084  27.69584  26.47129  3      619
siesta:      9.30690  27.88859  24.24520  2      620
siesta:      7.31135  28.18339  24.71385  1      621
siesta:      9.72642  29.13581  22.66349  1      622
siesta:      9.53178  25.13526  23.30600  2      623
siesta:      7.92740  24.82345  21.33313  3      624
siesta:     11.84859  24.90660  22.23264  3      625
siesta:      9.13494  22.86947  25.10124  2      626
siesta:      9.78879  21.21407  24.08646  1      627
siesta:     10.40484  23.08301  26.71129  1      628
siesta:      6.46665  22.31201  26.20484  2      629
siesta:      5.34415  24.53621  26.89459  3      630
siesta:      5.01534  21.47486  24.21874  3      631
siesta:      6.15484  20.40338  28.37614  2      632
siesta:      4.19897  19.81946  28.35157  1      633
siesta:      7.34726  18.78389  27.89993  1      634
siesta:      6.81058  21.07801  31.16160  2      635
siesta:      9.34281  20.84180  31.42994  3      636
siesta:      6.40428  23.58568  31.49986  3      637
siesta:      5.45375  19.71363  33.37069  2      638
siesta:      5.95642  20.73030  35.08278  1      639
siesta:      3.41285  19.88560  33.04943  1      640
siesta:      5.95264  16.86770  33.86580  2      641
siesta:      3.74166  15.63749  33.43872  3      642
siesta:      7.56836  15.98709  32.07244  3      643
siesta:      6.92396  15.94741  36.47362  2      644
siesta:      5.63328  16.65983  37.88524  1      645
siesta:      6.80491  13.88949  36.42449  1      646
siesta:      9.61115  16.60881  37.37880  2      647
siesta:     11.27978  15.96630  35.53064  3      648
siesta:      9.80768  19.18829  37.52242  3      649
siesta:     10.59003  15.52222  39.87135  2      650
siesta:      9.13494  15.79056  41.31888  1      651
siesta:     10.79601  13.47564  39.59734  1      652
siesta:     13.12226  16.49165  40.97495  2      653
siesta:     12.63471  18.52877  42.40358  3      654
siesta:     13.94618  14.68885  42.65303  3      655
siesta:     15.35970  17.20785  39.22695  2      656
siesta:     15.69607  15.57324  38.04776  1      657
siesta:     14.73231  18.74042  37.97406  1      658
siesta:     17.92595  18.05256  40.36079  2      659
siesta:     18.27366  20.52999  39.76363  3      660
siesta:     17.73131  18.06957  42.96672  3      661
siesta:     20.37315  16.62960  39.63135  2      662
siesta:     19.90638  14.64538  39.29120  1      663
siesta:     20.97030  17.41383  37.82099  1      664
siesta:     22.69751  16.72219  41.36990  2      665
siesta:     24.73841  16.12693  39.91481  3      666
siesta:     23.09813  19.16372  42.05398  3      667
siesta:     22.83735  15.13293  43.82655  2      668
siesta:     24.37559  15.91717   0.29102  1      669
siesta:     21.10069  15.46741   0.17763  1      670
siesta:     23.21907  12.22842  43.72639  2      671
siesta:     21.68084  11.16451   0.78046  3      672
siesta:     22.23831  11.37049  41.53620  3      673
siesta:     25.88359  11.07947  44.01363  2      674
siesta:     26.04800   9.58847  42.60200  1      675
siesta:     27.22341  12.54968  43.52608  1      676
siesta:     26.71885   9.90973   1.86327  2      677
siesta:     25.42628   7.70064   2.07303  3      678
siesta:     29.16982   9.16329   1.56280  3      679
siesta:     26.47318  11.34025   4.37094  2      680
siesta:     24.67227  12.31346   4.41440  1      681
siesta:     26.44106   9.89650   5.83548  1      682
siesta:     28.47063  13.33013   5.09848  2      683
siesta:     29.21329  14.56979   2.96876  3      684
siesta:     27.25931  15.20096   6.38161  3      685
siesta:     30.87436  12.51944   6.59326  2      686
siesta:     31.52442  10.75822   5.81091  1      687
siesta:     32.28031  13.95185   6.21342  1      688
siesta:     30.67216  12.16039   9.49021  2      689
siesta:     28.20228  12.07535  10.16673  3      690
siesta:     31.49230   9.80390  10.05902  3      691
siesta:     31.98363  14.07658  11.25899  2      692
siesta:     31.51309  15.94363  10.57302  1      693
siesta:     31.03121  13.88382  13.05801  1      694
siesta:     34.85601  13.97831  11.78056  2      695
siesta:     35.24719  15.52222  13.78934  3      696
siesta:     35.47017  11.68418  12.75188  3      697
siesta:     36.82700  14.78900   9.75099  2      698
siesta:     35.85757  16.03244   8.43763  1      699
siesta:     38.28776  15.91339  10.69018  1      700
siesta:     38.17059  12.80668   8.10693  2      701
siesta:     36.61346  10.78089   7.83859  3      702
siesta:     38.25374  13.79501   5.73910  3      703
siesta:     40.84645  11.77111   8.64361  2      704
siesta:     40.65936   9.71131   8.70408  1      705
siesta:     41.95572  12.25866   6.98443  1      706
siesta:     42.36201  12.64227  10.96042  2      707
siesta:      0.21165  15.14994  10.71664  3      708
siesta:     40.87479  12.40984  13.05045  3      709
siesta:      2.33570  11.38560  11.57647  2      710
siesta:      2.08248  10.27067  13.30179  1      711
siesta:      2.77790  10.08925  10.03067  1      712
siesta:      4.72810  12.98053  12.05079  2      713
siesta:      6.60649  11.34025  12.60259  3      714
siesta:      5.44052  14.07469   9.84737  3      715
siesta:      4.76022  14.97798  14.19185  2      716
siesta:      2.86105  15.20852  14.91939  1      717
siesta:      5.89217  14.21642  15.71308  1      718
siesta:      5.79768  17.65194  13.65895  2      719
siesta:      6.36460  18.72530  15.90583  3      720
siesta:      8.07291  17.42139  12.43629  3      721
siesta:      4.24244  19.58135  12.11693  2      722
siesta:      5.56714  20.85881  11.21175  1      723
siesta:      3.28812  18.54011  10.64105  1      724
siesta:      2.22421  21.24431  13.38494  2      725
siesta:      0.71810  19.77599  14.88349  3      726
siesta:      3.45631  22.76554  15.03467  3      727
siesta:      0.52912  23.03199  11.77489  2      728
siesta:      0.35149  24.78188  12.85014  1      729
siesta:      1.60438  23.47230  10.03634  1      730
siesta:     40.40614  22.29122  10.96986  2      731
siesta:     39.58978  24.03733   9.24643  3      732
siesta:     40.55732  20.12181   9.62249  3      733
siesta:     38.28209  21.93973  12.95030  2      734
siesta:     38.60334  20.12748  13.87626  1      735
siesta:     38.58255  23.39104  14.38649  1      736
siesta:     35.47395  22.04366  12.16228  2      737
siesta:     35.17160  20.46763  10.14216  3      738
siesta:     34.13603  20.90605  14.02933  3      739
siesta:     34.16437  24.53243  11.43474  2      740
siesta:     35.09223  25.19384   9.71509  1      741
siesta:     32.22551  24.04300  10.93207  1      742
siesta:     34.00752  26.76042  13.30935  2      743
siesta:     31.48096  27.11191  13.81579  3      744
siesta:     34.97129  26.00831  15.57702  3      745
siesta:     35.05632  29.39659  12.65172  2      746
siesta:     35.09034  29.51375  10.58247  1      747
siesta:     33.71462  30.78743  13.33580  1      748
siesta:     37.73596  30.18839  13.56446  2      749
siesta:     39.35545  28.21740  13.11659  3      750
siesta:     38.56366  32.09890  11.99977  3      751
siesta:     38.16114  31.09168  16.30078  2      752
siesta:     37.22573  29.71407  17.55367  1      753
siesta:     40.19449  30.99341  16.61637  1      754
siesta:     37.31077  33.75241  17.11526  2      755
siesta:     38.95294  35.46639  16.09102  3      756
siesta:     35.09601  34.27776  15.90394  3      757
siesta:     37.05187  34.37791  19.95174  2      758
siesta:     38.65247  33.50675  20.92495  1      759
siesta:     37.24274  36.41882  20.10102  1      760
siesta:     34.56688  33.68816  21.33313  2      761
siesta:     32.74330  35.35679  20.61314  3      762
siesta:     33.70706  31.44506  20.45440  3      763
siesta:     34.52909  33.43683  24.21874  2      764
siesta:     32.80944  32.45795  24.71196  1      765
siesta:     36.11079  32.20284  24.73275  1      766
siesta:     34.69539  35.78387  25.94217  2      767
siesta:     34.82956  34.92782  28.35724  3      768
siesta:     36.96306  36.92715  25.54155  3      769
siesta:     32.64125  37.88335  25.91382  2      770
siesta:     30.94050  37.04810  25.14282  1      771
siesta:     32.24252  38.38791  27.86213  1      772
siesta:     33.13258  40.37213  24.48141  2      773
siesta:     34.64625  41.84611  25.94406  3      774
siesta:     34.54043  39.82599  22.39515  3      775
siesta:     30.87247  41.99162  23.61025  2      776
siesta:     31.62458  43.74718  22.85436  1      777
siesta:     29.95406  40.94849  22.05311  1      778
siesta:     28.75975  42.73050  25.46785  2      779
siesta:     26.90782  40.96739  25.30722  3      780
siesta:     29.61958  42.57366  27.89048  3      781
siesta:     27.37836  45.27408  25.13526  2      782
siesta:     27.17805  45.60667  23.10947  1      783
siesta:     25.48864  45.04164  25.90060  1      784
siesta:     28.45740   1.45509  26.34657  2      785
siesta:     30.94617   1.59871  25.73241  3      786
siesta:     27.41427   3.42230  25.12203  3      787
siesta:     28.26464   1.96532  29.20006  2      788
siesta:     29.34179   0.45542  30.12225  1      789
siesta:     29.26431   3.71331  29.57423  1      790
siesta:     25.69651   2.12783  30.58334  2      791
siesta:     25.02187  45.96383  31.16727  3      792
siesta:     26.11414   3.24277  32.84534  3      793
siesta:     23.37025   3.47521  29.42305  2      794
siesta:     23.99953   5.37438  28.89581  1      795
siesta:     22.88270   2.46798  27.70340  1      796
siesta:     20.88526   3.75111  30.94428  2      797
siesta:     19.21852   5.09470  29.49297  3      798
siesta:     19.83079   1.41163  31.07467  3      799
siesta:     20.79455   4.88872  33.65037  2      800
siesta:     18.84814   4.82069  34.28343  1      801
siesta:     21.83201   3.61694  34.88247  1      802
siesta:     21.73753   7.58347  34.14547  2      803
siesta:     22.47074   8.62471  31.89103  3      804
siesta:     19.67395   8.94975  34.90137  3      805
siesta:     23.81434   8.11260  36.12402  2      806
siesta:     22.85058   8.34503  37.91170  1      807
siesta:     24.95573   6.41184  36.27142  1      808
siesta:     25.63981  10.40862  35.83867  2      809
siesta:     24.29433  12.41740  34.97318  3      810
siesta:     26.28421  11.11726  38.22351  3      811
siesta:     28.15315  10.12327  34.39303  2      812
siesta:     29.68761  10.15539  35.80466  1      813
siesta:     28.19473   8.27889  33.50486  1      814
siesta:     28.87503  12.10370  32.37669  2      815
siesta:     28.91471  14.43184  33.46328  3      816
siesta:     31.33734  11.68418  31.77954  3      817
siesta:     27.35380  12.35881  29.88792  2      818
siesta:     25.36013  12.29078  30.37736  1      819
siesta:     27.76765  14.22397  29.10935  1      820
siesta:     27.76198  10.40862  27.76954  2      821
siesta:     27.82434   8.07291  28.85046  3      822
siesta:     25.59635  10.40106  26.39571  3      823
siesta:     29.99941  10.63349  25.89115  2      824
siesta:     31.70962  10.32736  27.01365  1      825
siesta:     29.82745   9.05557  24.59857  1      826
siesta:     30.36980  13.08258  24.36236  2      827
siesta:     28.04922  14.07280  23.88993  3      828
siesta:     31.43372  14.77955  25.95351  3      829
siesta:     31.82111  13.06935  21.84335  2      830
siesta:     31.29010  11.33269  20.88904  1      831
siesta:     31.09735  14.63593  20.66038  1      832
siesta:     34.71239  13.24699  21.79989  2      833
siesta:     35.35679  15.65828  22.40838  3      834
siesta:     35.64781  11.87504  23.74064  3      835
siesta:     36.21095  12.58369  19.33758  2      836
siesta:     34.89759  12.73487  17.78422  1      837
siesta:     37.59234  14.12193  19.12782  1      838
siesta:     37.63958  10.05713  18.99742  2      839
siesta:     39.69938  10.60137  17.56690  3      840
siesta:     38.76019   9.38438  21.21407  3      841
siesta:     36.42638   7.72142  17.79367  2      842
siesta:     36.68338   7.95953  15.74331  1      843
siesta:     37.55265   6.08492  18.39460  1      844
siesta:     33.64092   7.03923  18.27744  2      845
siesta:     33.20439   7.01089  20.80778  3      846
siesta:     32.17260   8.92707  17.34202  3      847
siesta:     32.54299   4.60148  17.13982  2      848
siesta:     31.90237   5.08903  15.22742  1      849
siesta:     34.11146   3.27490  16.96597  1      850
siesta:     30.27153   3.22765  18.41161  2      851
siesta:     31.20695   1.60060  20.15583  3      852
siesta:     28.88637   4.93597  19.77599  3      853
siesta:     28.31945   1.75934  16.82424  2      854
siesta:     26.54121   1.79524  17.88249  1      855
siesta:     28.02087   2.82892  15.07624  1      856
siesta:     28.79944  45.23061  16.08724  2      857
siesta:     28.11347  43.76607  18.09602  3      858
siesta:     27.02309  44.69393  14.27689  3      859
siesta:     31.43939  44.41236  15.17262  2      860
siesta:     31.71151  45.37045  13.35848  1      861
siesta:     32.80377  45.16258  16.53133  1      862
siesta:     32.15181  41.61179  14.80601  2      863
siesta:     31.89292  40.46472  17.08691  3      864
siesta:     30.36035  40.55543  13.29423  3      865
siesta:     34.83145  40.98251  13.81012  2      866
siesta:     36.10890  42.43760  14.50554  1      867
siesta:     35.41159  39.20616  14.72286  1      868
siesta:     35.36435  40.66692  10.96231  2      869
siesta:     33.61446  42.00863   9.62627  3      870
siesta:     37.58289  41.89902  10.48798  3      871
siesta:     35.65915  38.02319   9.76422  2      872
siesta:     36.55677  38.28776   7.92551  1      873
siesta:     36.98195  36.96684  10.95097  1      874
siesta:     33.34234  36.27709   9.38438  2      875
siesta:     34.29476  33.90170   9.08581  3      876
siesta:     32.06111  36.10890  11.58025  3      877
siesta:     31.39025  36.80054   7.30379  2      878
siesta:     29.60068  36.09189   8.01055  1      879
siesta:     31.18994  38.83200   7.05435  1      880
siesta:     31.82111  35.62324   4.66196  2      881
siesta:     34.25319  36.13536   3.97788  3      882
siesta:     31.74930  33.07967   4.89628  3      883
siesta:     30.05422  36.35079   2.42641  2      884
siesta:     30.03721  38.37468   2.27334  1      885
siesta:     30.93105  35.65726   0.71432  1      886
siesta:     27.25931  35.49474   2.44153  2      887
siesta:     27.22152  32.92849   2.42641  3      888
siesta:     26.29177  36.12213   4.73944  3      889
siesta:     25.37147  36.40181   0.39117  2      890
siesta:     25.57178  38.44649   0.12283  1      891
siesta:     25.90816  35.46261  43.32388  1      892
siesta:     22.53121  35.86891   0.71243  2      893
siesta:     21.34635  36.83834  43.32577  3      894
siesta:     22.17028  33.33478   0.58015  3      895
siesta:     21.10636  36.81188   3.07270  2      896
siesta:     21.74698  35.66482   4.65251  1      897
siesta:     21.69595  38.75452   3.36749  1      898
siesta:     18.18673  36.74196   3.17285  2      899
siesta:     17.39116  34.66704   1.90107  3      900
siesta:     17.50643  36.23929   5.62761  3      901
siesta:     16.53700  38.99073   2.29035  2      902
siesta:     16.42929  38.86979   0.23055  1      903
siesta:     14.65294  38.67326   3.02734  1      904
siesta:     17.22108  41.75352   2.93664  2      905
siesta:     18.17539  41.79131   5.35549  3      906
siesta:     19.18640  42.48484   1.46643  3      907
siesta:     15.19151  43.84355   2.74199  2      908
siesta:     14.20886  43.82088   4.54479  1      909
siesta:     16.15528  45.65958   2.59082  1      910
siesta:     13.16762  43.73017   0.66140  2      911
siesta:     14.36381  42.92515  43.21805  3      912
siesta:     11.57269  41.80454   1.25667  3      913
siesta:     11.65773  46.11123  44.63157  2      914
siesta:     11.60103   1.10738   1.62517  1      915
siesta:     12.74054   0.84282  43.16703  1      916
siesta:      8.91384  45.84855  43.60356  2      917
siesta:      8.63983   1.38517  41.76296  3      918
siesta:      8.73621  43.61490  42.32043  3      919
siesta:      6.62349  46.06776   0.70298  2      920
siesta:      6.40239  44.24607   1.64217  1      921
siesta:      7.14128   1.21509   2.10516  1      922
siesta:      4.03646   0.62928  44.33299  2      923
siesta:      2.46609   0.70676   1.68186  3      924
siesta:      4.23488   3.10104  43.61112  3      925
siesta:      2.70420  45.36856  42.22973  2      926
siesta:      4.17063  44.78086  40.92959  1      927
siesta:      1.90107  43.66214  43.11223  1      928
siesta:      0.57448   0.39117  40.67637  2      929
siesta:     41.48328  44.79598  40.03197  3      930
siesta:     41.84800   1.91996  42.27697  3      931
siesta:      1.23777   1.93130  38.25752  2      932
siesta:      2.94797   2.98955  38.66948  1      933
siesta:      1.67430   0.59904  36.73062  1      934
siesta:     41.88958   3.80591  37.12746  2      935
siesta:     41.46061   3.08592  34.68405  3      936
siesta:     39.61812   3.50922  38.32177  3      937
siesta:     42.47350   6.66696  37.12368  2      938
siesta:     40.78786   7.59859  36.37157  1      939
siesta:      0.10016   7.24143  39.10223  1      940
siesta:      2.20531   7.68552  35.68371  2      941
siesta:      3.91362   8.45653  37.45061  3      942
siesta:      3.36938   5.69186  34.54988  3      943
siesta:      2.06925   9.82469  33.69194  2      944
siesta:      0.71054  11.21742  34.38736  1      945
siesta:      3.95709  10.70152  33.63714  1      946
siesta:      1.29824   9.31446  30.92538  2      947
siesta:      0.82770  11.57269  29.76887  3      948
siesta:      3.40907   8.42440  29.75564  3      949
siesta:     41.69304   7.52489  30.19973  2      950
siesta:     41.79509   7.29435  28.15126  1      951
siesta:     42.14847   5.69375  31.03498  1      952
siesta:     38.91704   8.18441  30.87436  2      953
siesta:     38.16870   6.53657  32.70550  3      954
siesta:     38.80365  10.47098  32.03276  3      955
siesta:     36.85912   8.18819  28.80889  2      956
siesta:     35.39458   9.46564  29.42305  1      957
siesta:     37.63958   8.95920  27.08168  1      958
siesta:     35.51175   5.69375  28.07000  2      959
siesta:     33.91493   5.09281  29.98808  3      960
siesta:     33.92627   6.17374  26.10091  3      961
siesta:     37.05187   3.29946  27.44261  2      962
siesta:     38.56366   3.12561  28.82967  1      963
siesta:     35.76119   1.72343  27.72229  1      964
siesta:     38.23484   2.94042  24.80078  2      965
siesta:     38.63925   5.28179  23.81056  3      966
siesta:     40.62157   2.00878  25.11258  3      967
siesta:     36.88180   1.31525  22.78444  2      968
siesta:     35.72340  46.20004  23.79166  1      969
siesta:     35.62702   2.56058  21.73753  1      970
siesta:     38.36901  46.09611  20.75676  2      971
siesta:     36.67015  45.42714  18.93884  3      972
siesta:     39.90347   1.54202  19.57757  3      973
siesta:     39.92237  43.70749  21.44273  2      974
siesta:     41.49462  44.35378  22.62570  1      975
siesta:     38.72806  42.53775  22.65027  1      976
siesta:     41.08077  41.91981  19.46419  2      977
siesta:     42.01997  39.90725  20.78511  3      978
siesta:     39.16459  40.91448  18.06579  3      979
siesta:      0.63117  42.79098  17.68973  2      980
siesta:      0.96187  44.81487  18.06012  1      981
siesta:      2.34326  41.77808  18.26988  1      982
siesta:      0.34393  42.48106  14.80412  2      983
siesta:     40.87101  43.84733  14.05579  3      984
siesta:      2.30925  43.71694  13.67028  3      985
siesta:      0.10771  39.85245  13.50588  2      986
siesta:     40.76519  39.21561  13.86115  1      987
siesta:      0.28157  40.16237  11.45363  1      988
siesta:      1.88784  37.64147  14.15216  2      989
siesta:      4.27078  38.54287  14.41295  3      990
siesta:      1.20754  36.78920  16.49543  3      991
siesta:      2.05035  35.34167  12.36070  2      992
siesta:      0.11338  34.77286  11.97898  1      993
siesta:      2.87616  36.04087  10.61082  1      994
siesta:      3.55269  32.93605  13.02967  2      995
siesta:      1.87272  30.99908  13.07502  3      996
siesta:      5.04935  32.42204  11.00955  3      997
siesta:      5.16840  32.68472  15.45419  2      998
siesta:      5.97910  34.54421  15.81323  1      999
siesta:      3.88717  32.27465  17.01510  1     1000
siesta:      7.37182  30.74019  15.59781  2     1001
siesta:      9.44485  31.78521  14.49987  3     1002
siesta:      8.00488  30.49452  18.08091  3     1003
siesta:      7.00144  28.00197  14.56790  2     1004
siesta:      6.16240  26.85869  16.07024  1     1005
siesta:      5.65406  28.11914  13.05423  1     1006
siesta:      9.28045  26.46185  13.56635  2     1007
siesta:      8.33936  24.23008  12.69519  3     1008
siesta:     10.13272  27.67883  11.47064  3     1009
siesta:     11.56135  25.87036  15.29167  2     1010
siesta:     12.63282  27.61836  15.50521  1     1011
siesta:     10.87916  25.31667  17.17384  1     1012
siesta:     13.55501  23.87670  14.47531  2     1013
siesta:     14.27878  24.42661  12.07158  3     1014
siesta:     15.70174  24.26787  15.85859  3     1015
siesta:     12.94274  21.02132  14.57924  2     1016
siesta:     11.03978  20.79266  13.82146  1     1017
siesta:     14.24854  20.09914  13.26210  1     1018
siesta:     13.02967  19.56812  17.13037  2     1019
siesta:     11.32702  20.72274  18.71208  3     1020
siesta:     12.05079  17.22108  16.72786  3     1021
siesta:     15.54111  19.21096  18.62704  2     1022
siesta:     16.15339  21.08935  19.22986  1     1023
siesta:     15.11782  18.11492  20.31456  1     1024
siesta:     17.84091  17.91461  17.36659  2     1025
siesta:     18.96341  16.50110  19.19963  3     1026
siesta:     16.95274  16.16472  15.70174  3     1027
siesta:     19.95363  19.45474  16.07969  2     1028
siesta:     19.33191  21.39927  16.04756  1     1029
siesta:     21.60147  19.33946  17.31179  1     1030
siesta:     20.89849  18.75554  13.39249  2     1031
siesta:     21.55045  16.26677  13.36604  3     1032
siesta:     18.87459  18.90672  11.80134  3     1033
siesta:     23.05845  20.26732  12.13583  2     1034
siesta:     22.71263  20.20685  10.09870  1     1035
siesta:     22.85058  22.20618  12.74999  1     1036
siesta:     25.85146  19.49442  12.53645  2     1037
siesta:     26.35791  17.59147  10.91884  3     1038
siesta:     27.31600  21.43139  11.69741  3     1039
siesta:     26.87192  18.75365  15.16317  2     1040
siesta:     25.73808  17.18518  15.82457  1     1041
siesta:     28.77676  18.05067  14.93073  1     1042
siesta:     26.95884  20.69440  17.34769  2     1043
siesta:     25.16738  22.50854  16.88849  3     1044
siesta:     26.08579  19.50198  19.46986  3     1045
siesta:     29.42683  22.11169  17.98264  2     1046
siesta:     30.37925  22.50476  16.20252  1     1047
siesta:     28.87314  23.93906  18.71208  1     1048
siesta:     31.40726  20.96463  19.83835  2     1049
siesta:     32.05355  18.60625  18.96719  3     1050
siesta:     33.60879  22.27610  19.57001  3     1051
siesta:     30.89325  20.69440  22.73530  2     1052
siesta:     29.42872  19.23553  22.94695  1     1053
siesta:     32.59212  19.91583  23.56111  1     1054
siesta:     30.07878  23.00931  24.30378  2     1055
siesta:     27.79788  23.76898  23.44206  3     1056
siesta:     29.56667  22.16839  26.66027  3     1057
siesta:     31.76064  25.38281  24.48330  2     1058
siesta:     32.45228  25.77021  22.57090  1     1059
siesta:     30.48318  26.92294  25.01809  1     1060
siesta:     34.06989  25.41872  26.25398  2     1061
siesta:     35.46828  23.34569  25.67005  3     1062
siesta:     35.55710  27.39726  25.56423  3     1063
siesta:     33.78832  25.46596  29.16415  2     1064
siesta:     32.96818  23.66505  29.72162  1     1065
siesta:     35.70072  25.50186  29.91816  1     1066
siesta:     32.31811  27.65993  30.44350  2     1067
siesta:     33.64281  28.18150  32.58834  3     1068
siesta:     32.59212  29.78210  28.97896  3     1069
siesta:     29.49297  27.39726  31.20884  2     1070
siesta:     28.95062  25.42628  30.94050  1     1071
siesta:     29.36069  27.80355  33.24030  1     1072
siesta:     27.36891  28.94873  29.90304  2     1073
siesta:     26.96073  27.97741  27.56923  3     1074
siesta:     25.19006  28.40071  31.17860  3     1075
siesta:     27.44261  31.84190  29.59501  2     1076
[...]
siesta:   1065   -0.407726   -0.840496    0.146063
siesta:   1066    0.822954    0.043353    0.076720
siesta:   1067   -0.216247   -0.285059   -0.447084
siesta:   1068    0.339964   -0.015789    1.239970
siesta:   1069    0.075480    1.091279   -0.944157
siesta:   1070    0.120868    0.279456   -0.293275
siesta:   1071   -0.456624   -0.774114   -0.074137
siesta:   1072   -0.037646    0.013570    0.475848
siesta:   1073    0.756104    0.533942    0.503382
siesta:   1074    0.342817   -0.332376   -1.523958
siesta:   1075   -0.710586   -0.318521    1.098490
siesta:   1076    1.264462   -0.598982    1.189287
siesta:   1077    0.788462    0.088841   -0.729349
siesta:   1078   -1.001887    0.207376   -0.313610
siesta:   1079    1.008167   -0.887095    0.265521
siesta:   1080    0.105708    1.364273   -0.691313
siesta:   1081   -0.823832   -0.469723    1.099501
siesta:   1082   -0.802964   -0.338143    0.120297
siesta:   1083    0.260813   -0.601827    0.502177
siesta:   1084    0.784002    0.105458   -0.474549
siesta:   1085   -0.966436    0.195222    0.069554
siesta:   1086    1.247021   -0.061068    0.507352
siesta:   1087   -0.226794    0.909884   -0.795517
siesta:   1088   -0.267736    0.044711   -0.564119
siesta:   1089   -0.943456   -0.353777   -0.021737
siesta:   1090    0.348397   -0.287489    0.614920
siesta:   1091   -0.196780   -0.343429   -0.174014
siesta:   1092   -0.692335   -0.447287    0.945042
siesta:   1093    1.234895    0.650697   -0.499591
siesta:   1094   -0.305863    0.051672   -0.002419
siesta:   1095    0.290875    0.636377    0.159545
siesta:   1096    0.290277   -0.006988   -1.267766
siesta:   1097   -0.382212    0.004137    0.410558
siesta:   1098   -0.287279   -1.176541   -0.583365
siesta:   1099    0.014186    0.307807    1.205834
siesta:   1100    0.865603    0.324199    0.609715
siesta:   1101    0.389671    0.750295    0.100050
siesta:   1102    0.129050   -0.096900   -1.115926
siesta:   1103    1.252060   -0.268313    1.505209
siesta:   1104   -1.041833    0.437007   -1.278459
siesta:   1105   -0.172441   -0.588578    0.585639
siesta:   1106    0.383054    0.472382    0.082750
siesta:   1107   -0.197756    0.295172   -0.320736
siesta:   1108   -0.479460   -0.337922    0.317194
siesta:   1109   -0.341654   -0.090711   -0.789853
siesta:   1110    0.115329   -1.070823    1.062273
siesta:   1111    1.213179    0.864624   -0.964666
siesta:   1112   -0.210236    0.454446   -0.075330
siesta:   1113   -1.019114   -0.184781    0.142781
siesta:   1114    0.059817   -0.010321    0.501607
siesta:   1115   -0.472512   -1.098814    0.358375
siesta:   1116    1.122081    0.637649    0.337431
siesta:   1117   -0.457099    0.119998   -1.787421
siesta:   1118   -0.354976   -0.435163    0.935815
siesta:   1119    0.599225    0.241592    0.864722
siesta:   1120    0.136880    0.735704   -0.665573
siesta:   1121   -0.176517    0.244921    0.106510
siesta:   1122   -0.742556   -0.442586   -1.261509
siesta:   1123    0.328034   -1.243960    1.041935
siesta:   1124    0.164117    0.208964   -0.335854
siesta:   1125    0.608651    0.667440    0.815502
siesta:   1126   -0.235695    0.915509   -0.679698
siesta:   1127    0.318275   -0.493452   -0.777578
siesta:   1128   -0.773795   -0.977968   -1.122044
siesta:   1129    0.598855   -0.342500    1.440324
siesta:   1130    0.173952    0.382970   -0.479049
siesta:   1131   -0.568781   -0.727475    0.858512
siesta:   1132    0.290605    0.792013    0.274329
siesta:   1133   -0.537929   -0.109172    0.386635
siesta:   1134   -0.458896    0.730890    0.783299
siesta:   1135    0.801052   -0.109879   -1.233042
siesta:   1136    0.088989   -0.438609    0.359067
siesta:   1137   -0.266303    0.485578   -0.720930
siesta:   1138    0.572103   -1.282090   -0.300100
siesta:   1139   -0.301611    0.184199    0.121653
siesta:   1140    0.437649    0.323664    1.525504
siesta:   1141   -0.877286    1.069418   -0.615402
siesta:   1142    0.486107   -0.268445   -0.818940
siesta:   1143    0.060103   -0.634006   -0.518974
siesta:   1144    0.273083   -0.458975    0.337012
siesta:   1145   -0.190372    0.759390   -0.289762
siesta:   1146    0.102043   -1.061914    0.884914
siesta:   1147   -0.263645    1.273535    0.717660
siesta:   1148    0.909518    0.242596   -0.641466
siesta:   1149   -0.071336    0.132517   -0.656439
siesta:   1150   -0.224664   -0.399495    0.078758
siesta:   1151    0.454772    0.337353   -0.250924
siesta:   1152   -1.075391   -1.232632   -1.155699
siesta:   1153    0.066710    0.557878    1.492988
siesta:   1154    0.826934    0.311027   -0.068411
siesta:   1155   -0.837172    0.369395    0.355282
siesta:   1156    0.608774    0.429233    0.557305
siesta:   1157    0.601489   -0.112724    0.468469
siesta:   1158    0.875412   -1.380912   -0.827481
siesta:   1159   -1.090862    0.582247   -0.418156
siesta:   1160    0.208135    0.329350    0.789449
siesta:   1161   -0.232835   -0.169819   -0.796379
siesta:   1162   -0.762575    0.798774    0.126082
siesta:   1163    0.316821    0.173267    0.122749
siesta:   1164    0.904928   -1.326079    1.276399
siesta:   1165    0.186394   -0.052088   -1.166194
siesta:   1166   -0.027774    0.232183    0.426302
siesta:   1167   -0.861773    0.934001   -0.274316
siesta:   1168   -0.230724    0.057068    0.643525
siesta:   1169    0.138704   -0.730787    0.053661
siesta:   1170    0.826669   -0.737064    0.763326
siesta:   1171    0.093316    0.358206   -1.295019
siesta:   1172   -0.395283   -0.763420    0.870450
siesta:   1173    0.209885    0.370310   -0.617011
siesta:   1174   -0.859075    0.858831    0.220659
siesta:   1175   -0.096936   -0.495078    0.374808
siesta:   1176    0.515434   -0.859074   -0.311875
siesta:   1177   -0.424335    1.298456   -0.001532
siesta:   1178   -0.743370   -0.194945   -0.703900
siesta:   1179   -0.168134   -0.639862   -0.027482
siesta:   1180    0.656466   -0.186408    0.062366
siesta:   1181   -0.888771    0.238211   -0.640153
siesta:   1182   -0.873634   -1.172612    0.475833
siesta:   1183    1.405312    1.207646    0.540711
siesta:   1184   -0.257931   -0.056543    0.420797
siesta:   1185    0.126947    0.367690    0.380074
siesta:   1186    0.125005    0.408447   -0.448118
siesta:   1187   -0.535183    0.089749    0.307883
siesta:   1188   -0.363941    1.360267   -0.837113
siesta:   1189    0.422515   -2.029980   -0.974566
siesta:   1190    0.424396    0.384871    0.055429
siesta:   1191   -0.055713   -0.370854    0.689435
siesta:   1192   -0.120345    0.500297    0.085408
siesta:   1193    0.695465   -0.286102   -0.692134
siesta:   1194    0.608001   -1.258177   -0.337521
siesta:   1195   -0.459121    0.513636    1.048483
siesta:   1196   -0.571368    0.353661   -0.689856
siesta:   1197   -0.400085   -0.016368    0.162194
siesta:   1198   -0.117253    0.888251   -0.478643
siesta:   1199    0.221866    0.190286    0.572169
siesta:   1200    1.475927    0.532044   -0.934763
siesta:   1201   -0.513711   -1.227354    0.359854
siesta:   1202    0.050031    0.154376    0.100219
siesta:   1203    0.362512   -0.569214   -0.142130
siesta:   1204   -0.704244    0.052699    0.013060
siesta:   1205    0.219315   -0.039680    0.329780
siesta:   1206   -1.303989    0.525824    0.533136
siesta:   1207    1.371853    0.724943   -0.043755
siesta:   1208    0.845826   -1.001216    0.047794
siesta:   1209   -0.431195   -0.696372   -0.323068
siesta:   1210   -0.551205    0.542193   -0.190628
siesta:   1211    0.103562   -1.026070    0.746806
siesta:   1212   -0.510900   -0.413290   -1.074451
siesta:   1213    0.404663    1.847515    0.134983
siesta:   1214   -0.570850   -0.576682   -0.435978
siesta:   1215    0.397328    0.552053   -0.585161
siesta:   1216    0.299936   -0.076619    1.088540
siesta:   1217   -0.141525    0.642945   -0.761410
siesta:   1218    1.157014   -0.101228    0.363607
siesta:   1219   -0.868013   -0.678880    0.363056
siesta:   1220    0.356405    0.459552    0.187029
siesta:   1221   -0.088919   -0.911917    0.293829
siesta:   1222   -0.925885    0.188151   -0.281055
siesta:   1223    0.531014   -0.494649    0.283884
siesta:   1224   -0.688741   -0.043827   -0.983384
siesta:   1225    0.681752    1.846643    0.754025
siesta:   1226   -0.822862   -0.064197    0.096698
siesta:   1227    0.487016   -0.341158    0.413717
siesta:   1228   -0.314068   -0.233497   -0.608332
siesta:   1229   -0.527377   -0.045365   -0.847366
siesta:   1230    0.481071    1.365753    1.412128
siesta:   1231    0.835244   -1.649909   -0.862437
siesta:   1232   -1.434544    0.588907   -0.299800
siesta:   1233   -0.375701    0.559513    0.226299
siesta:   1234    0.485969    0.415988    0.156271
siesta:   1235   -0.266399    0.099725    0.511328
siesta:   1236    1.771125   -0.071947   -0.323742
siesta:   1237   -0.583822   -0.505061   -0.145931
siesta:   1238    0.290744    0.220824    0.736008
siesta:   1239    0.390508   -0.478183   -0.613450
siesta:   1240   -0.888273    0.264062    0.035997
siesta:   1241    0.540087   -0.076526    0.387314
siesta:   1242   -0.673336    0.197700   -1.562726
siesta:   1243   -0.315527    0.450001    1.501026
siesta:   1244    0.106795   -0.500079    0.221650
siesta:   1245    0.444819   -0.038025    0.457509
siesta:   1246    0.562457   -0.453481   -0.401709
siesta:   1247   -1.153555   -1.252540    0.437804
siesta:   1248    1.094107    0.297535    0.352671
siesta:   1249    0.077919    0.123175   -1.183948
siesta:   1250   -0.687132    1.071797    0.441360
siesta:   1251    0.035550   -0.234912    0.281783
siesta:   1252   -0.901820   -0.204980    0.102808
siesta:   1253    0.720496   -0.218533    0.769219
siesta:   1254   -0.242960   -0.611316    1.142467
siesta:   1255   -0.508427    0.296716    0.170351
siesta:   1256    0.482301   -0.568916    0.796690
siesta:   1257    0.561578    0.410969    0.477461
siesta:   1258   -0.053043   -0.029803   -0.580729
siesta:   1259    0.102496    0.095898   -0.760125
siesta:   1260   -0.495178    0.097614   -0.483656
siesta:   1261    0.234909    0.182966   -0.685081
siesta:   1262   -0.828552    0.202590   -0.417794
siesta:   1263    0.443786   -0.418091   -0.352233
siesta:   1264   -0.170579   -0.117165    0.370031
siesta:   1265    0.216642    0.012562    0.480307
siesta:   1266    0.121942    0.491169    0.444974
siesta:   1267    0.136819   -0.326071    0.617461
siesta:   1268    0.776696    0.744352    0.630297
siesta:   1269   -1.122460    0.902552    0.614051
siesta:   1270   -0.248863    0.016684   -0.028945
siesta:   1271    0.620625   -0.075742   -0.108457
siesta:   1272   -0.261030    0.014089   -0.024373
siesta:   1273   -0.190030    0.460840    0.010247
siesta:   1274    0.412811   -0.241865    0.186797
siesta:   1275    0.258401    0.442282    0.034331
siesta:   1276    0.001004    0.091986   -0.074313
siesta:   1277   -0.051540   -0.067950   -0.267398
siesta:   1278    0.167562    0.914716   -0.496661
siesta:   1279   -0.082265    0.143497   -0.309432
siesta:   1280    0.129151    0.043135   -0.331432
siesta:   1281   -0.779591   -0.487129   -0.556861
siesta:   1282    0.924276   -0.315051   -0.455914
siesta: ----------------------------------------
siesta:    Tot    0.061283   -0.115644   -0.173722

siesta: Stress tensor (static) (eV/Ang**3):
siesta:     0.006821   -0.002359    0.001167
siesta:    -0.002359   -0.000902    0.001228
siesta:     0.001167    0.001228   -0.004002

siesta: Cell volume =      13041.289483 Ang**3

siesta: Pressure (static):
siesta:                Solid            Molecule  Units
siesta:          -0.00000696          0.00001656  Ry/Bohr**3
siesta:          -0.00063929          0.00152031  eV/Ang**3
siesta:          -1.02426141          2.43582991  kBar
(Free)E+ p_basis*V_orbitals  =     -374628.212089
(Free)Eharris+ p_basis*V_orbitals  =     -374628.179508

* Maximum dynamic memory allocated : Node    0 =   293 MB
* Maximum dynamic memory allocated : Node    1 =   300 MB
* Maximum dynamic memory allocated : Node    2 =   293 MB
* Maximum dynamic memory allocated : Node    3 =   293 MB
* Maximum dynamic memory allocated : Node    4 =   297 MB
* Maximum dynamic memory allocated : Node    5 =   295 MB
* Maximum dynamic memory allocated : Node    6 =   294 MB
* Maximum dynamic memory allocated : Node    7 =   295 MB
* Maximum dynamic memory allocated : Node    8 =   298 MB
* Maximum dynamic memory allocated : Node    9 =   295 MB
* Maximum dynamic memory allocated : Node   10 =   293 MB
* Maximum dynamic memory allocated : Node   11 =   298 MB
* Maximum dynamic memory allocated : Node   12 =   292 MB
* Maximum dynamic memory allocated : Node   13 =   297 MB
* Maximum dynamic memory allocated : Node   14 =   293 MB
* Maximum dynamic memory allocated : Node   15 =   291 MB
* Maximum dynamic memory allocated : Node   16 =   293 MB
* Maximum dynamic memory allocated : Node   17 =   294 MB
* Maximum dynamic memory allocated : Node   18 =   291 MB
* Maximum dynamic memory allocated : Node   19 =   293 MB
* Maximum dynamic memory allocated : Node   20 =   295 MB
* Maximum dynamic memory allocated : Node   21 =   293 MB
* Maximum dynamic memory allocated : Node   22 =   291 MB
* Maximum dynamic memory allocated : Node   23 =   294 MB
* Maximum dynamic memory allocated : Node   24 =   299 MB
* Maximum dynamic memory allocated : Node   25 =   294 MB
* Maximum dynamic memory allocated : Node   26 =   302 MB
* Maximum dynamic memory allocated : Node   27 =   297 MB
* Maximum dynamic memory allocated : Node   28 =   300 MB
* Maximum dynamic memory allocated : Node   29 =   300 MB
* Maximum dynamic memory allocated : Node   30 =   295 MB
* Maximum dynamic memory allocated : Node   31 =   294 MB
* Maximum dynamic memory allocated : Node   32 =   298 MB
* Maximum dynamic memory allocated : Node   33 =   296 MB
* Maximum dynamic memory allocated : Node   34 =   294 MB
* Maximum dynamic memory allocated : Node   35 =   293 MB
* Maximum dynamic memory allocated : Node   36 =   295 MB
* Maximum dynamic memory allocated : Node   37 =   296 MB
* Maximum dynamic memory allocated : Node   38 =   292 MB
* Maximum dynamic memory allocated : Node   39 =   295 MB
* Maximum dynamic memory allocated : Node   40 =   293 MB
* Maximum dynamic memory allocated : Node   41 =   295 MB
* Maximum dynamic memory allocated : Node   42 =   293 MB
* Maximum dynamic memory allocated : Node   43 =   297 MB
* Maximum dynamic memory allocated : Node   44 =   294 MB
* Maximum dynamic memory allocated : Node   45 =   294 MB
* Maximum dynamic memory allocated : Node   46 =   279 MB
* Maximum dynamic memory allocated : Node   47 =   283 MB
* Maximum dynamic memory allocated : Node   48 =   283 MB
* Maximum dynamic memory allocated : Node   49 =   280 MB
* Maximum dynamic memory allocated : Node   50 =   284 MB
* Maximum dynamic memory allocated : Node   51 =   282 MB
* Maximum dynamic memory allocated : Node   52 =   282 MB
* Maximum dynamic memory allocated : Node   53 =   281 MB
* Maximum dynamic memory allocated : Node   54 =   281 MB
* Maximum dynamic memory allocated : Node   55 =   282 MB
* Maximum dynamic memory allocated : Node   56 =   284 MB
* Maximum dynamic memory allocated : Node   57 =   279 MB
* Maximum dynamic memory allocated : Node   58 =   282 MB
* Maximum dynamic memory allocated : Node   59 =   282 MB
* Maximum dynamic memory allocated : Node   60 =   282 MB
* Maximum dynamic memory allocated : Node   61 =   278 MB
* Maximum dynamic memory allocated : Node   62 =   279 MB
* Maximum dynamic memory allocated : Node   63 =   277 MB

* Maximum memory occured during rdiag                         

timer: CPU execution times:
timer:  Routine       Calls   Time/call    Tot.time        %
timer:  siesta            1   87619.692   87619.692   100.00
timer:  Setup             1     150.525     150.525     0.17
timer:  bands             1       0.011       0.011     0.00
timer:  writewave         1       0.043       0.043     0.00
timer:  KSV_init          1       0.003       0.003     0.00
timer:  IterMD            1   87434.573   87434.573    99.79
timer:  hsparse           1      33.899      33.899     0.04
timer:  overlap           1      97.863      97.863     0.11
timer:  IterSCF          12    7089.569   85074.829    97.10
timer:  kinefsm           2      50.524     101.047     0.12
timer:  nlefsm            2     232.861     465.722     0.53
timer:  DHSCF            13    1077.368   14005.789    15.98
timer:  DHSCF1            1      43.466      43.466     0.05
timer:  DHSCF2            1     985.309     985.309     1.12
timer:  REORD            80       0.085       6.801     0.01
timer:  POISON           14      19.578     274.092     0.31
timer:  DHSCF3           13     959.410   12472.334    14.23
timer:  rhoofd           13     355.505    4621.562     5.27
timer:  cellXC           13      70.343     914.456     1.04
timer:  vmat             13     408.666    5312.657     6.06
timer:  MolMec            2       0.108       0.216     0.00
timer:  diagon           12    5282.816   63393.788    72.35
timer:  r-eigvec         12    5164.198   61970.380    70.73
timer:  r-buildHS        12       0.827       9.929     0.01
timer:  rdiag            12    5163.370   61960.442    70.72
timer:  rdiag1           12     164.123    1969.480     2.25
timer:  rdiag2           12    1080.127   12961.522    14.79
timer:  rdiag3           12    3536.807   42441.683    48.44
timer:  rdiag4           12     359.928    4319.132     4.93
timer:  r-buildD         12     118.026    1416.317     1.62
timer:  DHSCF4            1     495.428     495.428     0.57
timer:  dfscf             1     437.259     437.259     0.50
timer:  overfsm           1       5.047       5.047     0.01
timer:  optical           1      32.986      32.986     0.04
  

elaps: ELAPSED times:
elaps:  Routine       Calls   Time/call    Tot.time        %
elaps:  siesta            1    1380.502    1380.502   100.00
elaps:  Setup             1       2.340       2.340     0.17
elaps:  bands             1       0.000       0.000     0.00
elaps:  writewave         1       0.001       0.001     0.00
elaps:  KSV_init          1       0.000       0.000     0.00
elaps:  IterMD            1    1377.604    1377.604    99.79
elaps:  hsparse           1       0.520       0.520     0.04
elaps:  overlap           1       1.179       1.179     0.09
elaps:  IterSCF          12     111.637    1339.640    97.04
elaps:  kinefsm           2       0.621       1.243     0.09
elaps:  nlefsm            2       3.423       6.845     0.50
elaps:  DHSCF            13      16.825     218.727    15.84
elaps:  DHSCF1            1       0.644       0.644     0.05
elaps:  DHSCF2            1      15.497      15.497     1.12
elaps:  REORD            80       0.001       0.102     0.01
elaps:  POISON           14       0.320       4.481     0.32
elaps:  DHSCF3           13      15.025     195.325    14.15
elaps:  rhoofd           13       4.884      63.490     4.60
elaps:  cellXC           13       1.104      14.347     1.04
elaps:  vmat             13       6.398      83.179     6.03
elaps:  MolMec            2       0.002       0.003     0.00
elaps:  diagon           12      83.379    1000.545    72.48
elaps:  r-eigvec         12      81.508     978.092    70.85
elaps:  r-buildHS        12       0.014       0.165     0.01
elaps:  rdiag            12      81.494     977.927    70.84
elaps:  rdiag1           12       2.621      31.454     2.28
elaps:  rdiag2           12      17.199     206.385    14.95
elaps:  rdiag3           12      55.692     668.304    48.41
elaps:  rdiag4           12       5.645      67.739     4.91
elaps:  r-buildD         12       1.862      22.344     1.62
elaps:  DHSCF4            1       7.114       7.114     0.52
elaps:  dfscf             1       6.233       6.233     0.45
elaps:  overfsm           1       0.076       0.076     0.01
elaps:  optical           1       0.000       0.000     0.00
  
>> End of run:  25-SEP-2014   4:57:03
