Siesta Version:                                        siesta-3.1
Architecture  : x86_64-unknown-linux-gnu--Intel
Compiler flags: mpif90 -O3 -xSSSE3 -axSSE4.2,SSE4.1 -ip
PARALLEL version
NetCDF support

* Running on   64 nodes in parallel
>> Start of run:  10-MAY-2012  18:05:42

                           ***********************       
                           *  WELCOME TO SIESTA  *       
                           ***********************       

reinit: Reading from standard input
************************** Dump of input data file ****************************
SystemName      optical
SystemLabel     optical
NumberOfAtoms   32
NumberOfSpecies 1
MD.TypeOfRun    CG
MD.NumCGsteps   0
MD.ConstantVolume  .true.
SolutionMethod  diagon
XC.functional   GGA
XC.authors      PBE
PAO.BasisSize   DZP
DM.NumberPulay  7
DM.MixingWeight 0.1
DirectPhi       .true.
SaveMemory      .true.
MeshCutoff      500 Ry
MaxSCFiterations 200
UseSaveData     .true.
WriteMullikenPop 1
OpticalCalculation      .true.
%block Optical.Mesh
 1 1 1
%endblock Optical.Mesh
Optical.PolarizationType  polarized
%block Optical.Vector
 0.0 1.0 0.0
%endblock Optical.Vector
Optical.Broaden         0.05 eV
Optical.EnergyMinimum   0.001 eV
Optical.EnergyMaximum   100.0 eV
%block ChemicalSpeciesLabel
 1  47   Ag
%endblock ChemicalSpeciesLabel
LatticeConstant 1.0 Ang
%block LatticeParameters
  22.534   24.472   23.649   90.0 90.0 90.0
%endblock LatticeParameters
AtomicCoordinatesFormat Ang
%block AtomicCoordinatesAndAtomicSpecies < struct.coor
%endblock AtomicCoordinatesAndAtomicSpecies
************************** End of input data file *****************************

reinit: -----------------------------------------------------------------------
reinit: System Name: optical
reinit: -----------------------------------------------------------------------
reinit: System Label: optical                                                     
reinit: -----------------------------------------------------------------------

initatom: Reading input for the pseudopotentials and atomic orbitals ----------
 Species number:            1  Label: Ag Atomic number:          47
Ground state valence configuration:   5s01  4d10
Reading pseudopotential information in formatted form from Ag.psf

Valence configuration for pseudopotential generation:
5s( 1.00) rc: 2.52
5p( 0.00) rc: 2.72
4d(10.00) rc: 2.52
4f( 0.00) rc: 2.52
For Ag, standard SIESTA heuristics set lmxkb to 3
 (one more than the basis l, including polarization orbitals).
Use PS.lmax or PS.KBprojectors blocks to override.

<basis_specs>
===============================================================================
Ag                   Z=  47    Mass=  107.87        Charge= 0.17977+309
Lmxo=2 Lmxkb= 3    BasisType=split      Semic=F
L=0  Nsemic=0  Cnfigmx=5
          n=1  nzeta=2  polorb=1
            splnorm:   0.15000    
               vcte:    0.0000    
               rinn:    0.0000    
                rcs:    0.0000      0.0000    
            lambdas:    1.0000      1.0000    
L=1  Nsemic=0  Cnfigmx=5
L=2  Nsemic=0  Cnfigmx=4
          n=1  nzeta=2  polorb=0
            splnorm:   0.15000    
               vcte:    0.0000    
               rinn:    0.0000    
                rcs:    0.0000      0.0000    
            lambdas:    1.0000      1.0000    
-------------------------------------------------------------------------------
L=0  Nkbl=1  erefs: 0.17977+309
L=1  Nkbl=1  erefs: 0.17977+309
L=2  Nkbl=1  erefs: 0.17977+309
L=3  Nkbl=1  erefs: 0.17977+309
===============================================================================
</basis_specs>

atom: Called for Ag                    (Z =  47)

read_vps: Pseudopotential generation method:
read_vps: ATM 3.2.2 Troullier-Martins                       
Total valence charge:   11.00000

xc_check: Exchange-correlation functional:
xc_check: GGA Perdew, Burke & Ernzerhof 1996
V l=0 = -2*Zval/r beyond r=  2.4592
V l=1 = -2*Zval/r beyond r=  2.6507
V l=2 = -2*Zval/r beyond r=  2.4592
V l=3 = -2*Zval/r beyond r=  2.4592
All V_l potentials equal beyond r=  2.6507
This should be close to max(r_c) in ps generation
All pots = -2*Zval/r beyond r=  2.6507

VLOCAL1: 99.0% of the norm of Vloc inside      6.178 Ry
VLOCAL1: 99.9% of the norm of Vloc inside     14.079 Ry
atom: Maximum radius for 4*pi*r*r*local-pseudopot. charge    3.19739
atom: Maximum radius for r*vlocal+2*Zval:    2.82168
GHOST: No ghost state for L =  0
GHOST: No ghost state for L =  1
GHOST: No ghost state for L =  2
GHOST: No ghost state for L =  3

KBgen: Kleinman-Bylander projectors: 
   l= 0   rc=  2.966357   el= -0.323666   Ekb=  3.565490   kbcos=  0.247453
   l= 1   rc=  3.003670   el= -0.054265   Ekb=  1.619308   kbcos=  0.223076
   l= 2   rc=  2.786631   el= -0.547066   Ekb= -7.840816   kbcos= -0.714112
   l= 3   rc=  3.079709   el=  0.002953   Ekb= -2.732950   kbcos= -0.012571

KBgen: Total number of  Kleinman-Bylander projectors:   16
atom: -------------------------------------------------------------------------

atom: SANKEY-TYPE ORBITALS:
atom: Selected multiple-zeta basis: split     

SPLIT: Orbitals with angular momentum L= 0

SPLIT: Basis orbitals for state 5s

SPLIT: PAO cut-off radius determined from an
SPLIT: energy shift=  0.020000 Ry

   izeta = 1
                 lambda =    1.000000
                     rc =    6.684855
                 energy =   -0.305483
                kinetic =    0.327133
    potential(screened) =   -0.632616
       potential(ionic) =   -8.088030

   izeta = 2
                 rmatch =    6.279837
              splitnorm =    0.150000
                 energy =   -0.253539
                kinetic =    0.499634
    potential(screened) =   -0.753173
       potential(ionic) =   -8.691029

SPLIT: Orbitals with angular momentum L= 2

SPLIT: Basis orbitals for state 4d

SPLIT: PAO cut-off radius determined from an
SPLIT: energy shift=  0.020000 Ry

   izeta = 1
                 lambda =    1.000000
                     rc =    3.954440
                 energy =   -0.527442
                kinetic =    6.210364
    potential(screened) =   -6.737807
       potential(ionic) =  -18.733043

   izeta = 2
                 rmatch =    2.490121
              splitnorm =    0.150000
                 energy =   -0.148928
                kinetic =    8.576261
    potential(screened) =   -8.725189
       potential(ionic) =  -21.658221

POLgen: Perturbative polarization orbital with L=  1

POLgen: Polarization orbital for state 5s

   izeta = 1
                     rc =    6.684855
                 energy =   -0.001728
                kinetic =    0.597115
    potential(screened) =   -0.598843
       potential(ionic) =   -7.554613
atom: Total number of Sankey-type orbitals: 15

atm_pop: Valence configuration (for local Pseudopot. screening):
 5s( 1.00)                                                            
 5p( 0.00)                                                            
 4d(10.00)                                                            
Vna: chval, zval:   11.00000  11.00000

Vna:  Cut-off radius for the neutral-atom potential:   6.684855

atom: _________________________________________________________________________

prinput: Basis input ----------------------------------------------------------

PAO.BasisType split     

%block ChemicalSpeciesLabel
    1   47 Ag                      # Species index, atomic number, species label
%endblock ChemicalSpeciesLabel

%block PAO.Basis                 # Define Basis set
Ag                    2                    # Species label, number of l-shells
 n=5   0   2 P   1                   # n, l, Nzeta, Polarization, NzetaPol
   6.685      6.280   
   1.000      1.000   
 n=4   2   2                         # n, l, Nzeta 
   3.954      2.490   
   1.000      1.000   
%endblock PAO.Basis

prinput: ----------------------------------------------------------------------

Dumping basis to NetCDF file Ag.ion.nc
coor:   Atomic-coordinates input format  =     Cartesian coordinates
coor:                                          (in Angstroms)

siesta: WARNING: XV file not found

siesta: Atomic coordinates (Bohr) and species
siesta:     18.97286  36.77409  26.77743  1        1
siesta:     24.43228  36.77409  26.77743  1        2
siesta:     13.51344  36.77409  26.77743  1        3
siesta:     21.70351  41.50218  26.77743  1        4
siesta:     21.70351  32.04599  26.77743  1        5
siesta:     16.24220  41.50218  26.77743  1        6
siesta:     16.24220  32.04599  26.77743  1        7
siesta:     18.97286  39.92615  31.23530  1        8
siesta:     18.97286  30.46996  31.23530  1        9
siesta:     21.70351  35.19805  31.23530  1       10
siesta:     16.24220  35.19805  31.23530  1       11
siesta:     24.43228  39.92615  31.23530  1       12
siesta:     13.51344  39.92615  31.23530  1       13
siesta:     21.70351  11.89394  24.35480  1       14
siesta:     16.24220  11.89394  24.35480  1       15
siesta:     18.97286   7.16584  24.35480  1       16
siesta:     18.97286  16.62204  24.35480  1       17
siesta:     13.51344   7.16584  24.35480  1       18
siesta:     24.43228   7.16584  24.35480  1       19
siesta:     24.43228  10.31791  28.81267  1       20
siesta:     13.51344  10.31791  28.81267  1       21
siesta:     21.70351  15.04601  28.81267  1       22
siesta:     21.70351   5.58981  28.81267  1       23
siesta:     16.24220  15.04601  28.81267  1       24
siesta:     16.24220   5.58981  28.81267  1       25
siesta:     18.97286  10.31791  28.81267  1       26
siesta:     18.97286  13.46997  33.27053  1       27
siesta:     18.97286   4.01378  33.27053  1       28
siesta:     21.70351   8.74188  33.27053  1       29
siesta:     16.24220   8.74188  33.27053  1       30
siesta:     24.43228  13.46997  33.27053  1       31
siesta:     13.51344  13.46997  33.27053  1       32

siesta: System type = chain     

initatomlists: Number of atoms, orbitals, and projectors:     32   480   512

siesta: ******************** Simulation parameters ****************************
siesta:
siesta: The following are some of the parameters of the simulation.
siesta: A complete list of the parameters used, including default values,
siesta: can be found in file out.fdf
siesta:
redata: Non-Collinear-spin run           =     F
redata: SpinPolarized (Up/Down) run      =     F
redata: Number of spin components        =     1
redata: Long output                      =     F
redata: Number of Atomic Species         =        1
redata: Charge density info will appear in .RHO file
redata: Write Mulliken Pop.              =     Atomic and Orbital charges
redata: Mesh Cutoff                      =   500.0000  Ry
redata: Net charge of the system         =     0.0000 |e|
redata: Max. number of SCF Iter          =      200
redata: Performing Pulay mixing using    =     7 iterations
redata: Mix DM in first SCF step ?       =     F
redata: Write Pulay info on disk?        =     F
redata: Discard 1st Pulay DM after  kick =     F
redata: New DM Mixing Weight             =     0.1000
redata: New DM Occupancy tolerance       = 0.000000000001
redata: No kicks to SCF
redata: DM Mixing Weight for Kicks       =     0.5000
redata: DM Tolerance for SCF             =     0.000100
redata: Require Energy convergence for SCF =     F
redata: DM Energy tolerance for SCF      =     0.000100 eV
redata: Require Harris convergence for SCF =     F
redata: DM Harris energy tolerance for SCF =     0.000100 eV
redata: Using Saved Data (generic)   =     T
redata: Use continuation files for DM    =     T
redata: Neglect nonoverlap interactions  =     F
redata: Method of Calculation            =     Diagonalization
redata: Divide and Conquer               =     T
redata: Electronic Temperature           =     0.0019  Ry
redata: Fix the spin of the system       =     F
redata: Dynamics option                  =     CG coord. optimization
redata: Variable cell                    =     F
redata: Use continuation files for CG    =     T
redata: Max atomic displ per move        =     0.2000  Bohr
redata: Maximum number of CG moves       =        0
redata: Force tolerance                  =     0.0016  Ry/Bohr
redata: ***********************************************************************
Total number of electrons:   352.000000
Total ionic charge:   352.000000

* ProcessorY, Blocksize:    8   8

 Kpoints in:            1 . Kpoints trimmed:            1

siesta: k-grid: Number of k-points =     1
siesta: k-grid: Cutoff (effective) =    11.267 Ang
siesta: k-grid: Supercell and displacements
siesta: k-grid:    1   0   0      0.000
siesta: k-grid:    0   1   0      0.000
siesta: k-grid:    0   0   1      0.000

* Maximum dynamic memory allocated =     1 MB

siesta:                 ==============================
                            Begin CG move =      0
                        ==============================

outcell: Unit cell vectors (Ang):
       22.534000    0.000000    0.000000
        0.000000   24.472000    0.000000
        0.000000    0.000000   23.649000

outcell: Cell vector modules (Ang)   :   22.534000   24.472000   23.649000
outcell: Cell angles (23,13,12) (deg):     90.0000     90.0000     90.0000
outcell: Cell volume (Ang**3)        :  13041.2895
New_DM. Step:     1
Initializing Density Matrix...

InitMesh: MESH =   320 x   360 x   320 =    36864000
InitMesh: Mesh cutoff (required, used) =   500.000   506.030 Ry

* Maximum dynamic memory allocated =    79 MB

stepf: Fermi-Dirac step function

siesta: Program's energy decomposition (eV):
siesta: Ebs     =     -1317.558166
siesta: Eions   =     35531.607510
siesta: Ena     =       314.489226
siesta: Ekin    =     27181.985408
siesta: Enl     =    -18115.277726
siesta: DEna    =        -0.000262
siesta: DUscf   =         0.000000
siesta: DUext   =         0.000000
siesta: Exc     =     -5190.372192
siesta: eta*DQ  =         0.000000
siesta: Emadel  =         0.000000
siesta: Emeta   =         0.000000
siesta: Emolmec =         0.000000
siesta: Ekinion =         0.000000
siesta: Eharris =    -31462.685554
siesta: Etot    =    -31340.783056
siesta: FreeEng =    -31340.783056

siesta: iscf   Eharris(eV)      E_KS(eV)   FreeEng(eV)   dDmax  Ef(eV)
siesta:    1   -31462.6856   -31340.7831   -31340.7831  0.6926 -1.5532
timer: Routine,Calls,Time,% = IterSCF        1     740.387  83.88
elaps: Routine,Calls,Wall,% = IterSCF        1      11.582  83.64
siesta:    2   -31495.7868   -31377.9490   -31377.9937  0.8638 -4.6409
siesta:    3   -31431.0371   -31384.3243   -31384.4128  0.4852 -3.4295
siesta:    4   -31429.5672   -31386.8243   -31386.8445  0.4736 -3.2652
siesta:    5   -31428.6921   -31390.0922   -31390.1163  0.3496 -3.1056
siesta:    6   -31429.2034   -31417.8200   -31417.8728  0.0925 -2.6316
siesta:    7   -31428.2396   -31423.3704   -31423.4194  0.0390 -2.8020
siesta:    8   -31428.1741   -31426.0347   -31426.1054  0.0266 -2.8019
siesta:    9   -31428.1635   -31426.6072   -31426.6780  0.0099 -2.8074
siesta:   10   -31428.1581   -31427.1649   -31427.2331  0.0115 -2.8010
siesta:   11   -31428.1577   -31427.3168   -31427.3870  0.0081 -2.7981
siesta:   12   -31428.1575   -31427.8712   -31427.9413  0.0048 -2.7943
siesta:   13   -31428.1577   -31427.9742   -31428.0441  0.0020 -2.7942
siesta:   14   -31428.1577   -31428.0631   -31428.1327  0.0007 -2.7930
siesta:   15   -31428.1577   -31428.1090   -31428.1785  0.0006 -2.7927
siesta:   16   -31428.1578   -31428.1302   -31428.1997  0.0005 -2.7927
siesta:   17   -31428.1578   -31428.1592   -31428.2287  0.0002 -2.7930
siesta:   18   -31428.1578   -31428.1533   -31428.2227  0.0001 -2.7930
siesta:   19   -31428.1578   -31428.1485   -31428.2179  0.0001 -2.7930

siesta: E_KS(eV) =           -31428.1600

siesta: E_KS - E_eggbox =    -31428.1600

siesta: Atomic forces (eV/Ang):
----------------------------------------
   Tot   -0.001682    0.005058   -0.001352
----------------------------------------
   Max    1.316819
   Res    0.624387    sqrt( Sum f_i^2 / 3N )
----------------------------------------
   Max    1.316819    constrained

Stress-tensor-Voigt (kbar):        4.18        4.26        3.90        0.00        0.01        0.00
(Free)E + p*V (eV/cell)   -31461.7106
Target enthalpy (eV/cell)   -31428.2294
 
mulliken: Atomic and Orbital Populations:

Species: Ag                  
Atom  Qatom  Qorb
               5s      5s      4dxy    4dyz    4dz2    4dxz    4dx2-y2 4dxy    
               4dyz    4dz2    4dxz    4dx2-y2 5Ppy    5Ppz    5Ppx    
   1 11.078   0.406   0.412   1.869   1.907   1.896   1.907   1.869   0.033
              0.015   0.025   0.015   0.033   0.249   0.194   0.248
   2 10.985   0.648   0.279   1.942   1.943   1.927   1.973   1.910  -0.003
             -0.006  -0.003  -0.016   0.000   0.182   0.102   0.108
   3 10.985   0.648   0.279   1.942   1.943   1.927   1.973   1.910  -0.003
             -0.006  -0.003  -0.016   0.000   0.182   0.102   0.108
   4 10.979   0.644   0.278   1.918   1.986   1.926   1.929   1.933   0.000
             -0.020  -0.002  -0.002  -0.002   0.115   0.102   0.176
   5 10.986   0.650   0.279   1.917   1.944   1.926   1.971   1.934  -0.001
             -0.007  -0.003  -0.015  -0.002   0.138   0.102   0.151
   6 10.979   0.644   0.278   1.918   1.986   1.926   1.929   1.933   0.000
             -0.020  -0.002  -0.002  -0.002   0.115   0.102   0.176
   7 10.986   0.650   0.279   1.917   1.944   1.926   1.971   1.934  -0.001
             -0.007  -0.003  -0.015  -0.002   0.138   0.102   0.151
   8 11.000   0.456   0.345   1.900   1.926   1.922   1.914   1.885   0.013
              0.009   0.014   0.009   0.022   0.178   0.170   0.238
   9 10.989   0.781   0.234   1.925   1.991   1.940   1.943   1.985  -0.007
             -0.026  -0.016  -0.011  -0.026   0.087   0.081   0.108
  10 10.997   0.453   0.347   1.889   1.917   1.922   1.923   1.896   0.020
              0.009   0.014   0.009   0.015   0.222   0.169   0.192
  11 10.997   0.453   0.347   1.889   1.917   1.922   1.923   1.896   0.020
              0.009   0.014   0.009   0.015   0.222   0.169   0.192
  12 10.994   0.790   0.233   1.970   1.955   1.939   1.979   1.939  -0.021
             -0.015  -0.016  -0.022  -0.012   0.102   0.080   0.092
  13 10.994   0.790   0.233   1.970   1.955   1.939   1.979   1.939  -0.021
             -0.015  -0.016  -0.022  -0.012   0.102   0.080   0.092
  14 11.045   0.537   0.362   1.882   1.914   1.907   1.915   1.893   0.021
              0.011   0.015   0.012   0.017   0.206   0.163   0.191
  15 11.045   0.537   0.362   1.882   1.914   1.907   1.915   1.893   0.021
              0.011   0.015   0.012   0.017   0.206   0.163   0.191
  16 11.045   0.537   0.362   1.898   1.916   1.907   1.913   1.877   0.015
              0.012   0.015   0.011   0.023   0.183   0.163   0.214
  17 10.905   0.640   0.254   1.931   1.991   1.954   1.937   1.987  -0.008
             -0.025  -0.015  -0.010  -0.024   0.084   0.098   0.111
  18 10.905   0.640   0.254   1.973   1.950   1.954   1.977   1.945  -0.020
             -0.014  -0.015  -0.021  -0.012   0.104   0.098   0.091
  19 10.905   0.640   0.254   1.973   1.950   1.954   1.977   1.945  -0.020
             -0.014  -0.015  -0.021  -0.012   0.104   0.098   0.091
  20 11.045   0.537   0.362   1.925   1.877   1.879   1.927   1.902   0.010
              0.023   0.020   0.008   0.014   0.209   0.211   0.141
  21 11.045   0.537   0.362   1.925   1.877   1.879   1.927   1.902   0.010
              0.023   0.020   0.008   0.014   0.209   0.211   0.141
  22 11.045   0.537   0.362   1.908   1.914   1.880   1.889   1.920   0.013
              0.012   0.020   0.020   0.011   0.157   0.211   0.192
  23 11.046   0.540   0.359   1.908   1.914   1.879   1.889   1.919   0.013
              0.012   0.020   0.020   0.011   0.158   0.211   0.191
  24 11.045   0.537   0.362   1.908   1.914   1.880   1.889   1.920   0.013
              0.012   0.020   0.020   0.011   0.157   0.211   0.192
  25 11.046   0.540   0.359   1.908   1.914   1.879   1.889   1.919   0.013
              0.012   0.020   0.020   0.011   0.158   0.211   0.191
  26 11.078   0.172   0.549   1.886   1.892   1.881   1.892   1.886   0.029
              0.028   0.030   0.028   0.029   0.258   0.258   0.259
  27 11.046   0.538   0.362   1.898   1.916   1.907   1.913   1.877   0.015
              0.012   0.015   0.011   0.023   0.183   0.163   0.214
  28 10.907   0.648   0.247   1.930   1.990   1.954   1.937   1.987  -0.008
             -0.025  -0.014  -0.010  -0.024   0.086   0.097   0.110
  29 11.045   0.537   0.362   1.882   1.914   1.907   1.916   1.893   0.021
              0.011   0.015   0.012   0.017   0.206   0.163   0.192
  30 11.045   0.537   0.362   1.882   1.914   1.907   1.916   1.893   0.021
              0.011   0.015   0.012   0.017   0.206   0.163   0.192
  31 10.904   0.640   0.254   1.973   1.950   1.954   1.977   1.945  -0.020
             -0.014  -0.014  -0.021  -0.012   0.104   0.098   0.091
  32 10.904   0.640   0.254   1.973   1.950   1.954   1.977   1.945  -0.020
             -0.014  -0.014  -0.021  -0.012   0.104   0.098   0.091

mulliken: Qtot =      352.000

* Maximum dynamic memory allocated =    80 MB

siesta: Program's energy decomposition (eV):
siesta: Ebs     =     -2135.204029
siesta: Eions   =     35531.607510
siesta: Ena     =       314.489226
siesta: Ekin    =     25877.973513
siesta: Enl     =    -17203.508020
siesta: DEna    =       115.042705
siesta: DUscf   =        21.864147
siesta: DUext   =         0.000000
siesta: Exc     =     -5022.414019
siesta: eta*DQ  =         0.000000
siesta: Emadel  =         0.000000
siesta: Emeta   =         0.000000
siesta: Emolmec =         0.000000
siesta: Ekinion =         0.000000
siesta: Eharris =    -31428.157767
siesta: Etot    =    -31428.159958
siesta: FreeEng =    -31428.229417

siesta: Final energy (eV):
siesta:  Band Struct. =   -2135.204029
siesta:       Kinetic =   25877.973513
siesta:       Hartree =   85760.915133
siesta:    Ext. field =       0.000000
siesta:   Exch.-corr. =   -5022.414019
siesta:  Ion-electron = -193015.597926
siesta:       Ion-ion =   54970.963341
siesta:       Ekinion =       0.000000
siesta:         Total =  -31428.159958

siesta: Atomic forces (eV/Ang):
siesta:      1   -0.006175    0.011377    0.208020
siesta:      2   -0.990888   -0.147804    0.864362
siesta:      3    0.987316   -0.146814    0.862104
siesta:      4   -0.635097   -0.753916    0.872402
siesta:      5   -0.369148    0.928255    0.856827
siesta:      6    0.640539   -0.754413    0.871365
siesta:      7    0.373921    0.930832    0.854944
siesta:      8   -0.003972   -0.357721   -0.849594
siesta:      9    0.001872    1.041817   -0.945916
siesta:     10   -0.329591    0.189019   -0.849921
siesta:     11    0.328796    0.191786   -0.851555
siesta:     12   -0.889963   -0.507788   -0.933186
siesta:     13    0.887789   -0.509566   -0.932961
siesta:     14   -0.259921   -0.143689    0.421170
siesta:     15    0.266793   -0.145638    0.421182
siesta:     16   -0.003657    0.293467    0.418388
siesta:     17   -0.000652   -1.316819    0.921731
siesta:     18    1.133481    0.654206    0.922536
siesta:     19   -1.134046    0.654059    0.920616
siesta:     20   -0.517109   -0.000082    0.002619
siesta:     21    0.511915    0.001766    0.000229
siesta:     22   -0.260987   -0.454684    0.001326
siesta:     23   -0.262942    0.430325   -0.003709
siesta:     24    0.270647   -0.456829    0.002610
siesta:     25    0.268750    0.429910   -0.003962
siesta:     26   -0.009176   -0.002608    0.002890
siesta:     27   -0.002527   -0.299832   -0.419580
siesta:     28   -0.000426    1.269184   -0.939532
siesta:     29   -0.263754    0.144837   -0.424671
siesta:     30    0.268810    0.148001   -0.425386
siesta:     31   -1.134052   -0.657945   -0.922781
siesta:     32    1.131772   -0.657634   -0.923919
siesta: ----------------------------------------
siesta:    Tot   -0.001682    0.005058   -0.001352

siesta: Stress tensor (static) (eV/Ang**3):
siesta:     0.002607   -0.000001   -0.000001
siesta:    -0.000001    0.002661    0.000008
siesta:    -0.000001    0.000008    0.002434

siesta: Cell volume =      13041.289483 Ang**3

siesta: Pressure (static):
siesta:                Solid            Molecule  Units
siesta:          -0.00002796         -0.00000084  Ry/Bohr**3
siesta:          -0.00256732         -0.00007671  eV/Ang**3
siesta:          -4.11335145         -0.12290464  kBar
(Free)E+ p_basis*V_orbitals  =      -31405.359206
(Free)Eharris+ p_basis*V_orbitals  =      -31405.368514

siesta: Electric dipole (a.u.)  =   -0.000026    0.000000    0.010553
siesta: Electric dipole (Debye) =   -0.000067    0.000000    0.026822

Optical: Performing optical calculation: 

Optical: Polarization type       = polarized   
Optical: Minimum of energy range =   0.0001 Ry 
Optical: Maximum of energy range =   7.3498 Ry 
Optical: Gaussian broadening     =   0.0037 Ry 
Optical: Scissor operator        =   0.0000 Ry 
Optical: Number of bands         =      480
Optical: BZ mesh dimensions      =    1   1   1

Optical: electric field direction
Optical:      0.00000     1.00000     0.00000

Optical: Checking f-sum rule  0.319366
Optical: For insulators and closed shell systems
Optical: this number should be close to 1 if an enough
Optical: number of unoccupied bands have been included

* Maximum dynamic memory allocated : Node    0 =    68 MB
* Maximum dynamic memory allocated : Node    1 =    68 MB
* Maximum dynamic memory allocated : Node    2 =    68 MB
* Maximum dynamic memory allocated : Node    3 =    69 MB
* Maximum dynamic memory allocated : Node    4 =    72 MB
* Maximum dynamic memory allocated : Node    5 =    73 MB
* Maximum dynamic memory allocated : Node    6 =    70 MB
* Maximum dynamic memory allocated : Node    7 =    68 MB
* Maximum dynamic memory allocated : Node    8 =    68 MB
* Maximum dynamic memory allocated : Node    9 =    68 MB
* Maximum dynamic memory allocated : Node   10 =    68 MB
* Maximum dynamic memory allocated : Node   11 =    71 MB
* Maximum dynamic memory allocated : Node   12 =    79 MB
* Maximum dynamic memory allocated : Node   13 =    80 MB
* Maximum dynamic memory allocated : Node   14 =    73 MB
* Maximum dynamic memory allocated : Node   15 =    68 MB
* Maximum dynamic memory allocated : Node   16 =    68 MB
* Maximum dynamic memory allocated : Node   17 =    68 MB
* Maximum dynamic memory allocated : Node   18 =    68 MB
* Maximum dynamic memory allocated : Node   19 =    70 MB
* Maximum dynamic memory allocated : Node   20 =    75 MB
* Maximum dynamic memory allocated : Node   21 =    77 MB
* Maximum dynamic memory allocated : Node   22 =    72 MB
* Maximum dynamic memory allocated : Node   23 =    68 MB
* Maximum dynamic memory allocated : Node   24 =    68 MB
* Maximum dynamic memory allocated : Node   25 =    68 MB
* Maximum dynamic memory allocated : Node   26 =    68 MB
* Maximum dynamic memory allocated : Node   27 =    69 MB
* Maximum dynamic memory allocated : Node   28 =    70 MB
* Maximum dynamic memory allocated : Node   29 =    70 MB
* Maximum dynamic memory allocated : Node   30 =    69 MB
* Maximum dynamic memory allocated : Node   31 =    68 MB
* Maximum dynamic memory allocated : Node   32 =    67 MB
* Maximum dynamic memory allocated : Node   33 =    67 MB
* Maximum dynamic memory allocated : Node   34 =    67 MB
* Maximum dynamic memory allocated : Node   35 =    68 MB
* Maximum dynamic memory allocated : Node   36 =    68 MB
* Maximum dynamic memory allocated : Node   37 =    69 MB
* Maximum dynamic memory allocated : Node   38 =    68 MB
* Maximum dynamic memory allocated : Node   39 =    67 MB
* Maximum dynamic memory allocated : Node   40 =    67 MB
* Maximum dynamic memory allocated : Node   41 =    67 MB
* Maximum dynamic memory allocated : Node   42 =    68 MB
* Maximum dynamic memory allocated : Node   43 =    68 MB
* Maximum dynamic memory allocated : Node   44 =    72 MB
* Maximum dynamic memory allocated : Node   45 =    74 MB
* Maximum dynamic memory allocated : Node   46 =    69 MB
* Maximum dynamic memory allocated : Node   47 =    67 MB
* Maximum dynamic memory allocated : Node   48 =    68 MB
* Maximum dynamic memory allocated : Node   49 =    67 MB
* Maximum dynamic memory allocated : Node   50 =    68 MB
* Maximum dynamic memory allocated : Node   51 =    68 MB
* Maximum dynamic memory allocated : Node   52 =    75 MB
* Maximum dynamic memory allocated : Node   53 =    77 MB
* Maximum dynamic memory allocated : Node   54 =    70 MB
* Maximum dynamic memory allocated : Node   55 =    67 MB
* Maximum dynamic memory allocated : Node   56 =    67 MB
* Maximum dynamic memory allocated : Node   57 =    67 MB
* Maximum dynamic memory allocated : Node   58 =    67 MB
* Maximum dynamic memory allocated : Node   59 =    68 MB
* Maximum dynamic memory allocated : Node   60 =    70 MB
* Maximum dynamic memory allocated : Node   61 =    71 MB
* Maximum dynamic memory allocated : Node   62 =    67 MB
* Maximum dynamic memory allocated : Node   63 =    66 MB

* Maximum memory occured during redistribXY                   

timer: CPU execution times:
timer:  Routine       Calls   Time/call    Tot.time        %
timer:  siesta            1    8490.343    8490.343   100.00
timer:  Setup             1     115.375     115.375     1.36
timer:  bands             1       0.012       0.012     0.00
timer:  writewave         1       0.052       0.052     0.00
timer:  KSV_init          1       0.005       0.005     0.00
timer:  IterMD            1    7920.995    7920.995    93.29
timer:  hsparse           1       0.066       0.066     0.00
timer:  overlap           1      13.998      13.998     0.16
timer:  IterSCF          19     387.614    7364.670    86.74
timer:  kinefsm           2       6.616      13.231     0.16
timer:  nlefsm            2      25.070      50.139     0.59
timer:  DHSCF            20     354.667    7093.335    83.55
timer:  DHSCF1            1      49.976      49.976     0.59
timer:  DHSCF2            1     209.194     209.194     2.46
timer:  REORD           162       0.125      20.265     0.24
timer:  POISON           21      47.026     987.555    11.63
timer:  DHSCF3           20     339.261    6785.217    79.92
timer:  rhoofd           20      17.645     352.893     4.16
timer:  cellXC           20      43.573     871.468    10.26
timer:  vmat             20     106.796    2135.919    25.16
timer:  MolMec            2       0.000       0.001     0.00
timer:  diagon           19      20.251     384.774     4.53
timer:  r-eigvec         19      19.729     374.858     4.42
timer:  r-buildHS        19       0.003       0.059     0.00
timer:  rdiag            20      21.011     420.226     4.95
timer:  rdiag1           20       0.492       9.842     0.12
timer:  rdiag2           20       4.207      84.135     0.99
timer:  rdiag3           20      13.979     279.584     3.29
timer:  rdiag4           20       0.520      10.395     0.12
timer:  r-buildD         19       0.500       9.494     0.11
timer:  DHSCF4            1      39.945      39.945     0.47
timer:  dfscf             1      36.719      36.719     0.43
timer:  overfsm           1       0.084       0.084     0.00
timer:  optical           1     433.635     433.635     5.11
timer:  phirphiopt        1     205.900     205.900     2.43
timer:  transrate         1     175.591     175.591     2.07
  

elaps: ELAPSED times:
elaps:  Routine       Calls   Time/call    Tot.time        %
elaps:  siesta            1     132.839     132.839   100.00
elaps:  Setup             1       1.803       1.803     1.36
elaps:  bands             1       0.000       0.000     0.00
elaps:  writewave         1       0.001       0.001     0.00
elaps:  KSV_init          1       0.000       0.000     0.00
elaps:  IterMD            1     123.923     123.923    93.29
elaps:  hsparse           1       0.001       0.001     0.00
elaps:  overlap           1       0.234       0.234     0.18
elaps:  IterSCF          19       6.063     115.193    86.71
elaps:  kinefsm           2       0.112       0.225     0.17
elaps:  nlefsm            2       0.399       0.798     0.60
elaps:  DHSCF            20       5.523     110.452    83.15
elaps:  DHSCF1            1       0.761       0.761     0.57
elaps:  DHSCF2            1       3.311       3.311     2.49
elaps:  REORD           162       0.002       0.255     0.19
elaps:  POISON           21       0.735      15.443    11.63
elaps:  DHSCF3           20       5.300     105.997    79.79
elaps:  rhoofd           20       0.027       0.545     0.41
elaps:  cellXC           20       0.689      13.789    10.38
elaps:  vmat             20       1.665      33.301    25.07
elaps:  MolMec            2       0.000       0.000     0.00
elaps:  diagon           19       0.326       6.197     4.67
elaps:  r-eigvec         19       0.318       6.038     4.55
elaps:  r-buildHS        19       0.000       0.001     0.00
elaps:  rdiag            20       0.328       6.554     4.93
elaps:  rdiag1           20       0.008       0.157     0.12
elaps:  rdiag2           20       0.066       1.316     0.99
elaps:  rdiag3           20       0.220       4.393     3.31
elaps:  rdiag4           20       0.008       0.163     0.12
elaps:  r-buildD         19       0.008       0.153     0.11
elaps:  DHSCF4            1       0.284       0.284     0.21
elaps:  dfscf             1       0.273       0.273     0.21
elaps:  overfsm           1       0.002       0.002     0.00
elaps:  optical           1       6.995       6.995     5.27
elaps:  phirphiopt        1       3.414       3.414     2.57
elaps:  transrate         1       2.748       2.748     2.07
  
>> End of run:  10-MAY-2012  18:07:55
