Siesta Version:                                        siesta-3.1
Architecture  : x86_64-unknown-linux-gnu--Intel
Compiler flags: mpif90 -O3 -xSSSE3 -axSSE4.2,SSE4.1 -ip
PARALLEL version
NetCDF support

* Running on   64 nodes in parallel
>> Start of run:  10-MAY-2012  17:33:12

                           ***********************       
                           *  WELCOME TO SIESTA  *       
                           ***********************       

reinit: Reading from standard input
************************** Dump of input data file ****************************
SystemName      optical
SystemLabel     optical
NumberOfAtoms   32
NumberOfSpecies 1
MD.TypeOfRun    CG
MD.NumCGsteps   0
MD.ConstantVolume  .true.
SolutionMethod  diagon
XC.functional   GGA
XC.authors      PBE
PAO.BasisSize   DZP
DM.NumberPulay  7
DM.MixingWeight 0.1
DirectPhi       .true.
SaveMemory      .true.
MeshCutoff      500 Ry
MaxSCFiterations 200
UseSaveData     .true.
WriteMullikenPop 1
OpticalCalculation      .true.
%block Optical.Mesh
 1 1 1
%endblock Optical.Mesh
Optical.PolarizationType  polarized
%block Optical.Vector
 0.0 0.0 1.0
%endblock Optical.Vector
Optical.Broaden         0.05 eV
Optical.EnergyMinimum   0.001 eV
Optical.EnergyMaximum   100.0 eV
%block ChemicalSpeciesLabel
 1  47   Ag
%endblock ChemicalSpeciesLabel
LatticeConstant 1.0 Ang
%block LatticeParameters
  22.534   24.472   23.649   90.0 90.0 90.0
%endblock LatticeParameters
AtomicCoordinatesFormat Ang
%block AtomicCoordinatesAndAtomicSpecies < struct.coor
%endblock AtomicCoordinatesAndAtomicSpecies
************************** End of input data file *****************************

reinit: -----------------------------------------------------------------------
reinit: System Name: optical
reinit: -----------------------------------------------------------------------
reinit: System Label: optical                                                     
reinit: -----------------------------------------------------------------------

initatom: Reading input for the pseudopotentials and atomic orbitals ----------
 Species number:            1  Label: Ag Atomic number:          47
Ground state valence configuration:   5s01  4d10
Reading pseudopotential information in formatted form from Ag.psf

Valence configuration for pseudopotential generation:
5s( 1.00) rc: 2.52
5p( 0.00) rc: 2.72
4d(10.00) rc: 2.52
4f( 0.00) rc: 2.52
For Ag, standard SIESTA heuristics set lmxkb to 3
 (one more than the basis l, including polarization orbitals).
Use PS.lmax or PS.KBprojectors blocks to override.

<basis_specs>
===============================================================================
Ag                   Z=  47    Mass=  107.87        Charge= 0.17977+309
Lmxo=2 Lmxkb= 3    BasisType=split      Semic=F
L=0  Nsemic=0  Cnfigmx=5
          n=1  nzeta=2  polorb=1
            splnorm:   0.15000    
               vcte:    0.0000    
               rinn:    0.0000    
                rcs:    0.0000      0.0000    
            lambdas:    1.0000      1.0000    
L=1  Nsemic=0  Cnfigmx=5
L=2  Nsemic=0  Cnfigmx=4
          n=1  nzeta=2  polorb=0
            splnorm:   0.15000    
               vcte:    0.0000    
               rinn:    0.0000    
                rcs:    0.0000      0.0000    
            lambdas:    1.0000      1.0000    
-------------------------------------------------------------------------------
L=0  Nkbl=1  erefs: 0.17977+309
L=1  Nkbl=1  erefs: 0.17977+309
L=2  Nkbl=1  erefs: 0.17977+309
L=3  Nkbl=1  erefs: 0.17977+309
===============================================================================
</basis_specs>

atom: Called for Ag                    (Z =  47)

read_vps: Pseudopotential generation method:
read_vps: ATM 3.2.2 Troullier-Martins                       
Total valence charge:   11.00000

xc_check: Exchange-correlation functional:
xc_check: GGA Perdew, Burke & Ernzerhof 1996
V l=0 = -2*Zval/r beyond r=  2.4592
V l=1 = -2*Zval/r beyond r=  2.6507
V l=2 = -2*Zval/r beyond r=  2.4592
V l=3 = -2*Zval/r beyond r=  2.4592
All V_l potentials equal beyond r=  2.6507
This should be close to max(r_c) in ps generation
All pots = -2*Zval/r beyond r=  2.6507

VLOCAL1: 99.0% of the norm of Vloc inside      6.178 Ry
VLOCAL1: 99.9% of the norm of Vloc inside     14.079 Ry
atom: Maximum radius for 4*pi*r*r*local-pseudopot. charge    3.19739
atom: Maximum radius for r*vlocal+2*Zval:    2.82168
GHOST: No ghost state for L =  0
GHOST: No ghost state for L =  1
GHOST: No ghost state for L =  2
GHOST: No ghost state for L =  3

KBgen: Kleinman-Bylander projectors: 
   l= 0   rc=  2.966357   el= -0.323666   Ekb=  3.565490   kbcos=  0.247453
   l= 1   rc=  3.003670   el= -0.054265   Ekb=  1.619308   kbcos=  0.223076
   l= 2   rc=  2.786631   el= -0.547066   Ekb= -7.840816   kbcos= -0.714112
   l= 3   rc=  3.079709   el=  0.002953   Ekb= -2.732950   kbcos= -0.012571

KBgen: Total number of  Kleinman-Bylander projectors:   16
atom: -------------------------------------------------------------------------

atom: SANKEY-TYPE ORBITALS:
atom: Selected multiple-zeta basis: split     

SPLIT: Orbitals with angular momentum L= 0

SPLIT: Basis orbitals for state 5s

SPLIT: PAO cut-off radius determined from an
SPLIT: energy shift=  0.020000 Ry

   izeta = 1
                 lambda =    1.000000
                     rc =    6.684855
                 energy =   -0.305483
                kinetic =    0.327133
    potential(screened) =   -0.632616
       potential(ionic) =   -8.088030

   izeta = 2
                 rmatch =    6.279837
              splitnorm =    0.150000
                 energy =   -0.253539
                kinetic =    0.499634
    potential(screened) =   -0.753173
       potential(ionic) =   -8.691029

SPLIT: Orbitals with angular momentum L= 2

SPLIT: Basis orbitals for state 4d

SPLIT: PAO cut-off radius determined from an
SPLIT: energy shift=  0.020000 Ry

   izeta = 1
                 lambda =    1.000000
                     rc =    3.954440
                 energy =   -0.527442
                kinetic =    6.210364
    potential(screened) =   -6.737807
       potential(ionic) =  -18.733043

   izeta = 2
                 rmatch =    2.490121
              splitnorm =    0.150000
                 energy =   -0.148928
                kinetic =    8.576261
    potential(screened) =   -8.725189
       potential(ionic) =  -21.658221

POLgen: Perturbative polarization orbital with L=  1

POLgen: Polarization orbital for state 5s

   izeta = 1
                     rc =    6.684855
                 energy =   -0.001728
                kinetic =    0.597115
    potential(screened) =   -0.598843
       potential(ionic) =   -7.554613
atom: Total number of Sankey-type orbitals: 15

atm_pop: Valence configuration (for local Pseudopot. screening):
 5s( 1.00)                                                            
 5p( 0.00)                                                            
 4d(10.00)                                                            
Vna: chval, zval:   11.00000  11.00000

Vna:  Cut-off radius for the neutral-atom potential:   6.684855

atom: _________________________________________________________________________

prinput: Basis input ----------------------------------------------------------

PAO.BasisType split     

%block ChemicalSpeciesLabel
    1   47 Ag                      # Species index, atomic number, species label
%endblock ChemicalSpeciesLabel

%block PAO.Basis                 # Define Basis set
Ag                    2                    # Species label, number of l-shells
 n=5   0   2 P   1                   # n, l, Nzeta, Polarization, NzetaPol
   6.685      6.280   
   1.000      1.000   
 n=4   2   2                         # n, l, Nzeta 
   3.954      2.490   
   1.000      1.000   
%endblock PAO.Basis

prinput: ----------------------------------------------------------------------

Dumping basis to NetCDF file Ag.ion.nc
coor:   Atomic-coordinates input format  =     Cartesian coordinates
coor:                                          (in Angstroms)

siesta: WARNING: XV file not found

siesta: Atomic coordinates (Bohr) and species
siesta:     18.97286  21.65627   3.15584  1        1
siesta:     24.43228  21.65627   3.15584  1        2
siesta:     13.51344  21.65627   3.15584  1        3
siesta:     21.70351  26.38437   3.15584  1        4
siesta:     21.70351  16.92817   3.15584  1        5
siesta:     16.24220  26.38437   3.15584  1        6
siesta:     16.24220  16.92817   3.15584  1        7
siesta:     18.97286  24.80833   7.61371  1        8
siesta:     18.97286  15.35214   7.61371  1        9
siesta:     21.70351  20.08024   7.61371  1       10
siesta:     16.24220  20.08024   7.61371  1       11
siesta:     24.43228  24.80833   7.61371  1       12
siesta:     13.51344  24.80833   7.61371  1       13
siesta:     21.70351  23.23230  24.35480  1       14
siesta:     16.24220  23.23230  24.35480  1       15
siesta:     18.97286  18.50421  24.35480  1       16
siesta:     18.97286  27.96040  24.35480  1       17
siesta:     13.51344  18.50421  24.35480  1       18
siesta:     24.43228  18.50421  24.35480  1       19
siesta:     24.43228  21.65627  28.81267  1       20
siesta:     13.51344  21.65627  28.81267  1       21
siesta:     21.70351  26.38437  28.81267  1       22
siesta:     21.70351  16.92817  28.81267  1       23
siesta:     16.24220  26.38437  28.81267  1       24
siesta:     16.24220  16.92817  28.81267  1       25
siesta:     18.97286  21.65627  28.81267  1       26
siesta:     18.97286  24.80833  33.27053  1       27
siesta:     18.97286  15.35214  33.27053  1       28
siesta:     21.70351  20.08024  33.27053  1       29
siesta:     16.24220  20.08024  33.27053  1       30
siesta:     24.43228  24.80833  33.27053  1       31
siesta:     13.51344  24.80833  33.27053  1       32

siesta: System type = molecule  

initatomlists: Number of atoms, orbitals, and projectors:     32   480   512

siesta: ******************** Simulation parameters ****************************
siesta:
siesta: The following are some of the parameters of the simulation.
siesta: A complete list of the parameters used, including default values,
siesta: can be found in file out.fdf
siesta:
redata: Non-Collinear-spin run           =     F
redata: SpinPolarized (Up/Down) run      =     F
redata: Number of spin components        =     1
redata: Long output                      =     F
redata: Number of Atomic Species         =        1
redata: Charge density info will appear in .RHO file
redata: Write Mulliken Pop.              =     Atomic and Orbital charges
redata: Mesh Cutoff                      =   500.0000  Ry
redata: Net charge of the system         =     0.0000 |e|
redata: Max. number of SCF Iter          =      200
redata: Performing Pulay mixing using    =     7 iterations
redata: Mix DM in first SCF step ?       =     F
redata: Write Pulay info on disk?        =     F
redata: Discard 1st Pulay DM after  kick =     F
redata: New DM Mixing Weight             =     0.1000
redata: New DM Occupancy tolerance       = 0.000000000001
redata: No kicks to SCF
redata: DM Mixing Weight for Kicks       =     0.5000
redata: DM Tolerance for SCF             =     0.000100
redata: Require Energy convergence for SCF =     F
redata: DM Energy tolerance for SCF      =     0.000100 eV
redata: Require Harris convergence for SCF =     F
redata: DM Harris energy tolerance for SCF =     0.000100 eV
redata: Using Saved Data (generic)   =     T
redata: Use continuation files for DM    =     T
redata: Neglect nonoverlap interactions  =     F
redata: Method of Calculation            =     Diagonalization
redata: Divide and Conquer               =     T
redata: Electronic Temperature           =     0.0019  Ry
redata: Fix the spin of the system       =     F
redata: Dynamics option                  =     CG coord. optimization
redata: Variable cell                    =     F
redata: Use continuation files for CG    =     T
redata: Max atomic displ per move        =     0.2000  Bohr
redata: Maximum number of CG moves       =        0
redata: Force tolerance                  =     0.0016  Ry/Bohr
redata: ***********************************************************************
Total number of electrons:   352.000000
Total ionic charge:   352.000000

* ProcessorY, Blocksize:    8   8

 Kpoints in:            1 . Kpoints trimmed:            1

siesta: k-grid: Number of k-points =     1
siesta: k-grid: Cutoff (effective) =    11.267 Ang
siesta: k-grid: Supercell and displacements
siesta: k-grid:    1   0   0      0.000
siesta: k-grid:    0   1   0      0.000
siesta: k-grid:    0   0   1      0.000

* Maximum dynamic memory allocated =     1 MB

siesta:                 ==============================
                            Begin CG move =      0
                        ==============================

outcell: Unit cell vectors (Ang):
       22.534000    0.000000    0.000000
        0.000000   24.472000    0.000000
        0.000000    0.000000   23.649000

outcell: Cell vector modules (Ang)   :   22.534000   24.472000   23.649000
outcell: Cell angles (23,13,12) (deg):     90.0000     90.0000     90.0000
outcell: Cell volume (Ang**3)        :  13041.2895
New_DM. Step:     1
Initializing Density Matrix...

InitMesh: MESH =   320 x   360 x   320 =    36864000
InitMesh: Mesh cutoff (required, used) =   500.000   506.030 Ry

* Maximum dynamic memory allocated =    80 MB

stepf: Fermi-Dirac step function

siesta: Program's energy decomposition (eV):
siesta: Ebs     =     -1317.495266
siesta: Eions   =     35531.607510
siesta: Ena     =       314.489247
siesta: Ekin    =     27181.985408
siesta: Enl     =    -18115.277726
siesta: DEna    =        -0.000262
siesta: DUscf   =         0.000000
siesta: DUext   =         0.000000
siesta: Exc     =     -5190.370491
siesta: eta*DQ  =         0.000000
siesta: Emadel  =         0.000000
siesta: Emeta   =         0.000000
siesta: Emolmec =         0.000000
siesta: Ekinion =         0.000000
siesta: Eharris =    -31462.622181
siesta: Etot    =    -31340.781334
siesta: FreeEng =    -31340.781334

siesta: iscf   Eharris(eV)      E_KS(eV)   FreeEng(eV)   dDmax  Ef(eV)
siesta:    1   -31462.6222   -31340.7813   -31340.7813  0.6925 -1.5518
timer: Routine,Calls,Time,% = IterSCF        1     738.692  86.05
elaps: Routine,Calls,Wall,% = IterSCF        1      11.546  86.26
siesta:    2   -31496.2756   -31377.9199   -31377.9680  0.8634 -4.5625
siesta:    3   -31430.8874   -31384.3298   -31384.4172  0.4818 -3.4286
siesta:    4   -31429.4151   -31387.0525   -31387.1065  0.4676 -3.2385
siesta:    5   -31428.7121   -31390.3556   -31390.3758  0.3429 -3.0947
siesta:    6   -31429.3539   -31417.9739   -31418.0056  0.1052 -2.6158
siesta:    7   -31428.1982   -31423.1661   -31423.1735  0.0397 -2.8125
siesta:    8   -31428.1398   -31425.9753   -31426.0495  0.0445 -2.8089
siesta:    9   -31428.1666   -31426.5305   -31426.6032  0.0556 -2.8028
siesta:   10   -31428.1184   -31426.9513   -31427.0010  0.0158 -2.8044
siesta:   11   -31428.1139   -31427.2493   -31427.3216  0.0116 -2.7998
siesta:   12   -31428.1193   -31427.6668   -31427.7421  0.0157 -2.7951
siesta:   13   -31428.1138   -31427.8565   -31427.9276  0.0105 -2.7973
siesta:   14   -31428.1157   -31428.0093   -31428.0846  0.0085 -2.7955
siesta:   15   -31428.1137   -31428.0600   -31428.1331  0.0017 -2.7956
siesta:   16   -31428.1137   -31428.0897   -31428.1644  0.0011 -2.7950
siesta:   17   -31428.1138   -31428.1012   -31428.1759  0.0005 -2.7949
siesta:   18   -31428.1138   -31428.1173   -31428.1919  0.0001 -2.7950
siesta:   19   -31428.1138   -31428.1198   -31428.1944  0.0002 -2.7950
siesta:   20   -31428.1138   -31428.1198   -31428.1944  0.0002 -2.7950
siesta:   21   -31428.1138   -31428.1149   -31428.1895  0.0000 -2.7950

siesta: E_KS(eV) =           -31428.1144

siesta: E_KS - E_eggbox =    -31428.1144

siesta: Atomic forces (eV/Ang):
----------------------------------------
   Tot    0.002821   -0.032965   -0.007262
----------------------------------------
   Max    1.316312
   Res    0.626557    sqrt( Sum f_i^2 / 3N )
----------------------------------------
   Max    1.316312    constrained

Stress-tensor-Voigt (kbar):        4.17        4.14        3.91        0.01        0.00        0.00
(Free)E + p*V (eV/cell)   -31461.3324
Target enthalpy (eV/cell)   -31428.1890
 
mulliken: Atomic and Orbital Populations:

Species: Ag                  
Atom  Qatom  Qorb
               5s      5s      4dxy    4dyz    4dz2    4dxz    4dx2-y2 4dxy    
               4dyz    4dz2    4dxz    4dx2-y2 5Ppy    5Ppz    5Ppx    
   1 11.075   0.403   0.413   1.869   1.907   1.896   1.907   1.869   0.033
              0.015   0.025   0.015   0.033   0.248   0.194   0.248
   2 10.985   0.647   0.280   1.942   1.943   1.926   1.973   1.910  -0.003
             -0.006  -0.003  -0.016   0.000   0.182   0.102   0.108
   3 10.985   0.647   0.280   1.942   1.943   1.926   1.973   1.910  -0.003
             -0.006  -0.003  -0.016   0.000   0.182   0.102   0.108
   4 10.985   0.648   0.280   1.918   1.986   1.926   1.929   1.933  -0.001
             -0.020  -0.003  -0.002  -0.002   0.114   0.102   0.176
   5 10.984   0.647   0.280   1.917   1.944   1.926   1.971   1.934  -0.001
             -0.007  -0.003  -0.015  -0.003   0.139   0.102   0.151
   6 10.985   0.648   0.280   1.918   1.986   1.926   1.929   1.933  -0.001
             -0.020  -0.003  -0.002  -0.002   0.114   0.102   0.176
   7 10.984   0.647   0.280   1.917   1.944   1.926   1.971   1.934  -0.001
             -0.007  -0.003  -0.015  -0.003   0.139   0.102   0.151
   8 10.996   0.452   0.348   1.900   1.926   1.922   1.914   1.885   0.013
              0.010   0.014   0.009   0.022   0.176   0.169   0.237
   9 10.993   0.788   0.233   1.925   1.991   1.939   1.943   1.985  -0.007
             -0.026  -0.016  -0.011  -0.026   0.087   0.080   0.108
  10 10.996   0.452   0.348   1.889   1.917   1.922   1.923   1.896   0.020
              0.009   0.014   0.009   0.015   0.222   0.169   0.192
  11 10.996   0.452   0.348   1.889   1.917   1.922   1.923   1.896   0.020
              0.009   0.014   0.009   0.015   0.222   0.169   0.192
  12 10.993   0.788   0.233   1.970   1.955   1.939   1.979   1.940  -0.021
             -0.015  -0.016  -0.022  -0.012   0.103   0.081   0.092
  13 10.993   0.788   0.233   1.970   1.955   1.939   1.979   1.940  -0.021
             -0.015  -0.016  -0.022  -0.012   0.103   0.081   0.092
  14 11.046   0.538   0.362   1.882   1.914   1.907   1.915   1.893   0.021
              0.011   0.015   0.012   0.017   0.206   0.162   0.191
  15 11.046   0.538   0.362   1.882   1.914   1.907   1.915   1.893   0.021
              0.011   0.015   0.012   0.017   0.206   0.162   0.191
  16 11.046   0.538   0.362   1.898   1.916   1.907   1.913   1.877   0.015
              0.012   0.015   0.011   0.023   0.184   0.162   0.214
  17 10.904   0.640   0.254   1.931   1.991   1.954   1.937   1.987  -0.008
             -0.025  -0.015  -0.010  -0.024   0.084   0.098   0.111
  18 10.904   0.639   0.254   1.973   1.950   1.954   1.977   1.945  -0.020
             -0.014  -0.015  -0.021  -0.012   0.104   0.098   0.091
  19 10.904   0.639   0.254   1.973   1.950   1.954   1.977   1.945  -0.020
             -0.014  -0.015  -0.021  -0.012   0.104   0.098   0.091
  20 11.045   0.537   0.363   1.925   1.877   1.879   1.927   1.902   0.010
              0.023   0.020   0.008   0.014   0.209   0.211   0.140
  21 11.045   0.537   0.363   1.925   1.877   1.879   1.927   1.902   0.010
              0.023   0.020   0.008   0.014   0.209   0.211   0.140
  22 11.045   0.537   0.362   1.908   1.914   1.879   1.889   1.920   0.013
              0.012   0.020   0.020   0.011   0.157   0.211   0.191
  23 11.045   0.537   0.362   1.908   1.914   1.879   1.889   1.920   0.013
              0.012   0.020   0.020   0.011   0.157   0.211   0.191
  24 11.045   0.537   0.362   1.908   1.914   1.879   1.889   1.920   0.013
              0.012   0.020   0.020   0.011   0.157   0.211   0.191
  25 11.045   0.537   0.362   1.908   1.914   1.879   1.889   1.920   0.013
              0.012   0.020   0.020   0.011   0.157   0.211   0.191
  26 11.078   0.173   0.548   1.887   1.892   1.881   1.892   1.887   0.029
              0.028   0.030   0.028   0.029   0.258   0.258   0.258
  27 11.045   0.537   0.362   1.898   1.916   1.907   1.913   1.877   0.015
              0.012   0.015   0.011   0.023   0.184   0.162   0.214
  28 10.905   0.640   0.254   1.931   1.991   1.954   1.937   1.987  -0.008
             -0.025  -0.015  -0.010  -0.024   0.084   0.098   0.111
  29 11.045   0.537   0.362   1.882   1.914   1.907   1.915   1.893   0.021
              0.011   0.015   0.012   0.017   0.206   0.162   0.191
  30 11.045   0.537   0.362   1.882   1.914   1.907   1.915   1.893   0.021
              0.011   0.015   0.012   0.017   0.206   0.162   0.191
  31 10.905   0.640   0.254   1.973   1.950   1.954   1.977   1.945  -0.020
             -0.014  -0.015  -0.021  -0.012   0.104   0.098   0.091
  32 10.905   0.640   0.254   1.973   1.950   1.954   1.977   1.945  -0.020
             -0.014  -0.015  -0.021  -0.012   0.104   0.098   0.091

mulliken: Qtot =      352.000

* Maximum dynamic memory allocated =    80 MB

siesta: Program's energy decomposition (eV):
siesta: Ebs     =     -2135.395517
siesta: Eions   =     35531.607510
siesta: Ena     =       314.489247
siesta: Ekin    =     25878.064987
siesta: Enl     =    -17203.475745
siesta: DEna    =       115.018323
siesta: DUscf   =        21.862269
siesta: DUext   =         0.000000
siesta: Exc     =     -5022.466013
siesta: eta*DQ  =         0.000000
siesta: Emadel  =         0.000000
siesta: Emeta   =         0.000000
siesta: Emolmec =         0.000000
siesta: Ekinion =         0.000000
siesta: Eharris =    -31428.113772
siesta: Etot    =    -31428.114442
siesta: FreeEng =    -31428.189047

siesta: Final energy (eV):
siesta:  Band Struct. =   -2135.395517
siesta:       Kinetic =   25878.064987
siesta:       Hartree =   84768.218629
siesta:    Ext. field =       0.000000
siesta:   Exch.-corr. =   -5022.466013
siesta:  Ion-electron = -191030.420320
siesta:       Ion-ion =   53978.488276
siesta:       Ekinion =       0.000000
siesta:         Total =  -31428.114442

siesta: Atomic forces (eV/Ang):
siesta:      1   -0.005966    0.001821    0.209433
siesta:      2   -0.989455   -0.149437    0.860743
siesta:      3    0.986513   -0.144946    0.861306
siesta:      4   -0.629072   -0.785034    0.861512
siesta:      5   -0.370998    0.929907    0.862514
siesta:      6    0.632220   -0.788934    0.864235
siesta:      7    0.378190    0.929224    0.861376
siesta:      8   -0.005572   -0.373555   -0.855270
siesta:      9    0.000638    1.023764   -0.941407
siesta:     10   -0.327199    0.183217   -0.848536
siesta:     11    0.335035    0.186159   -0.851764
siesta:     12   -0.888889   -0.515106   -0.944093
siesta:     13    0.888840   -0.515680   -0.945247
siesta:     14   -0.262408   -0.146368    0.419910
siesta:     15    0.270122   -0.141733    0.419467
siesta:     16   -0.004636    0.298634    0.419112
siesta:     17   -0.002333   -1.316312    0.929735
siesta:     18    1.133420    0.655760    0.926004
siesta:     19   -1.135554    0.656333    0.926502
siesta:     20   -0.515500   -0.002424   -0.001269
siesta:     21    0.512698    0.002161    0.000410
siesta:     22   -0.263967   -0.447577    0.001589
siesta:     23   -0.263493    0.445419    0.001396
siesta:     24    0.270070   -0.449022    0.000266
siesta:     25    0.269433    0.446000    0.001800
siesta:     26   -0.006599    0.000395   -0.000785
siesta:     27   -0.004887   -0.299458   -0.422017
siesta:     28   -0.000554    1.309884   -0.928199
siesta:     29   -0.262775    0.144031   -0.419717
siesta:     30    0.269445    0.145417   -0.419599
siesta:     31   -1.138078   -0.657961   -0.928540
siesta:     32    1.134132   -0.657543   -0.928130
siesta: ----------------------------------------
siesta:    Tot    0.002821   -0.032965   -0.007262

siesta: Stress tensor (static) (eV/Ang**3):
siesta:     0.002604    0.000006    0.000001
siesta:     0.000006    0.002582    0.000001
siesta:     0.000001    0.000001    0.002438

siesta: Cell volume =      13041.289483 Ang**3

siesta: Pressure (static):
siesta:                Solid            Molecule  Units
siesta:          -0.00002768         -0.00000001  Ry/Bohr**3
siesta:          -0.00254141         -0.00000131  eV/Ang**3
siesta:          -4.07183770         -0.00210323  kBar
(Free)E+ p_basis*V_orbitals  =      -31405.318835
(Free)Eharris+ p_basis*V_orbitals  =      -31405.317741

siesta: Electric dipole (a.u.)  =   -0.000015   -0.003111   -1.151468
siesta: Electric dipole (Debye) =   -0.000038   -0.007906   -2.926742

Optical: Performing optical calculation: 

Optical: Polarization type       = polarized   
Optical: Minimum of energy range =   0.0001 Ry 
Optical: Maximum of energy range =   7.3498 Ry 
Optical: Gaussian broadening     =   0.0037 Ry 
Optical: Scissor operator        =   0.0000 Ry 
Optical: Number of bands         =      480
Optical: BZ mesh dimensions      =    1   1   1

Optical: electric field direction
Optical:      0.00000     0.00000     1.00000

Optical: Checking f-sum rule  0.369933
Optical: For insulators and closed shell systems
Optical: this number should be close to 1 if an enough
Optical: number of unoccupied bands have been included

* Maximum dynamic memory allocated : Node    0 =    68 MB
* Maximum dynamic memory allocated : Node    1 =    68 MB
* Maximum dynamic memory allocated : Node    2 =    68 MB
* Maximum dynamic memory allocated : Node    3 =    68 MB
* Maximum dynamic memory allocated : Node    4 =    68 MB
* Maximum dynamic memory allocated : Node    5 =    68 MB
* Maximum dynamic memory allocated : Node    6 =    68 MB
* Maximum dynamic memory allocated : Node    7 =    68 MB
* Maximum dynamic memory allocated : Node    8 =    68 MB
* Maximum dynamic memory allocated : Node    9 =    69 MB
* Maximum dynamic memory allocated : Node   10 =    68 MB
* Maximum dynamic memory allocated : Node   11 =    68 MB
* Maximum dynamic memory allocated : Node   12 =    68 MB
* Maximum dynamic memory allocated : Node   13 =    69 MB
* Maximum dynamic memory allocated : Node   14 =    68 MB
* Maximum dynamic memory allocated : Node   15 =    68 MB
* Maximum dynamic memory allocated : Node   16 =    72 MB
* Maximum dynamic memory allocated : Node   17 =    72 MB
* Maximum dynamic memory allocated : Node   18 =    69 MB
* Maximum dynamic memory allocated : Node   19 =    69 MB
* Maximum dynamic memory allocated : Node   20 =    73 MB
* Maximum dynamic memory allocated : Node   21 =    73 MB
* Maximum dynamic memory allocated : Node   22 =    70 MB
* Maximum dynamic memory allocated : Node   23 =    69 MB
* Maximum dynamic memory allocated : Node   24 =    77 MB
* Maximum dynamic memory allocated : Node   25 =    76 MB
* Maximum dynamic memory allocated : Node   26 =    69 MB
* Maximum dynamic memory allocated : Node   27 =    71 MB
* Maximum dynamic memory allocated : Node   28 =    79 MB
* Maximum dynamic memory allocated : Node   29 =    80 MB
* Maximum dynamic memory allocated : Node   30 =    73 MB
* Maximum dynamic memory allocated : Node   31 =    70 MB
* Maximum dynamic memory allocated : Node   32 =    74 MB
* Maximum dynamic memory allocated : Node   33 =    74 MB
* Maximum dynamic memory allocated : Node   34 =    68 MB
* Maximum dynamic memory allocated : Node   35 =    69 MB
* Maximum dynamic memory allocated : Node   36 =    74 MB
* Maximum dynamic memory allocated : Node   37 =    76 MB
* Maximum dynamic memory allocated : Node   38 =    71 MB
* Maximum dynamic memory allocated : Node   39 =    69 MB
* Maximum dynamic memory allocated : Node   40 =    68 MB
* Maximum dynamic memory allocated : Node   41 =    68 MB
* Maximum dynamic memory allocated : Node   42 =    68 MB
* Maximum dynamic memory allocated : Node   43 =    68 MB
* Maximum dynamic memory allocated : Node   44 =    69 MB
* Maximum dynamic memory allocated : Node   45 =    69 MB
* Maximum dynamic memory allocated : Node   46 =    68 MB
* Maximum dynamic memory allocated : Node   47 =    68 MB
* Maximum dynamic memory allocated : Node   48 =    68 MB
* Maximum dynamic memory allocated : Node   49 =    67 MB
* Maximum dynamic memory allocated : Node   50 =    68 MB
* Maximum dynamic memory allocated : Node   51 =    67 MB
* Maximum dynamic memory allocated : Node   52 =    68 MB
* Maximum dynamic memory allocated : Node   53 =    67 MB
* Maximum dynamic memory allocated : Node   54 =    68 MB
* Maximum dynamic memory allocated : Node   55 =    68 MB
* Maximum dynamic memory allocated : Node   56 =    67 MB
* Maximum dynamic memory allocated : Node   57 =    67 MB
* Maximum dynamic memory allocated : Node   58 =    67 MB
* Maximum dynamic memory allocated : Node   59 =    67 MB
* Maximum dynamic memory allocated : Node   60 =    66 MB
* Maximum dynamic memory allocated : Node   61 =    66 MB
* Maximum dynamic memory allocated : Node   62 =    66 MB
* Maximum dynamic memory allocated : Node   63 =    66 MB

* Maximum memory occured during redistribXY                   

timer: CPU execution times:
timer:  Routine       Calls   Time/call    Tot.time        %
timer:  siesta            1    9121.051    9121.051   100.00
timer:  Setup             1      79.181      79.181     0.87
timer:  bands             1       0.001       0.001     0.00
timer:  writewave         1       0.041       0.041     0.00
timer:  KSV_init          1       0.031       0.031     0.00
timer:  IterMD            1    8631.418    8631.418    94.63
timer:  hsparse           1       0.059       0.059     0.00
timer:  overlap           1      13.981      13.981     0.15
timer:  IterSCF          21     384.479    8074.054    88.52
timer:  kinefsm           2       6.589      13.178     0.14
timer:  nlefsm            2      25.081      50.162     0.55
timer:  DHSCF            22     349.342    7685.526    84.26
timer:  DHSCF1            1      49.796      49.796     0.55
timer:  DHSCF2            1     209.616     209.616     2.30
timer:  REORD           178       0.113      20.179     0.22
timer:  POISON           23      39.171     900.934     9.88
timer:  DHSCF3           22     335.329    7377.236    80.88
timer:  rhoofd           22      17.851     392.712     4.31
timer:  cellXC           22      43.803     963.669    10.57
timer:  vmat             22     107.932    2374.511    26.03
timer:  MolMec            2       0.001       0.001     0.00
timer:  diagon           21      22.456     471.571     5.17
timer:  r-eigvec         21      21.957     461.092     5.06
timer:  r-buildHS        21       0.003       0.059     0.00
timer:  rdiag            22      23.964     527.199     5.78
timer:  rdiag1           22       0.519      11.426     0.13
timer:  rdiag2           22       4.782     105.209     1.15
timer:  rdiag3           22      14.708     323.571     3.55
timer:  rdiag4           22       1.183      26.023     0.29
timer:  r-buildD         21       0.476      10.002     0.11
timer:  DHSCF4            1      40.328      40.328     0.44
timer:  dfscf             1      37.113      37.113     0.41
timer:  overfsm           1       0.080       0.080     0.00
timer:  optical           1     374.870     374.870     4.11
timer:  phirphiopt        1     120.445     120.445     1.32
timer:  transrate         1     178.178     178.178     1.95
  

elaps: ELAPSED times:
elaps:  Routine       Calls   Time/call    Tot.time        %
elaps:  siesta            1     142.610     142.610   100.00
elaps:  Setup             1       1.142       1.142     0.80
elaps:  bands             1       0.000       0.000     0.00
elaps:  writewave         1       0.001       0.001     0.00
elaps:  KSV_init          1       0.001       0.001     0.00
elaps:  IterMD            1     135.025     135.025    94.68
elaps:  hsparse           1       0.001       0.001     0.00
elaps:  overlap           1       0.248       0.248     0.17
elaps:  IterSCF          21       6.013     126.270    88.54
elaps:  kinefsm           2       0.112       0.224     0.16
elaps:  nlefsm            2       0.407       0.814     0.57
elaps:  DHSCF            22       5.438     119.628    83.88
elaps:  DHSCF1            1       0.762       0.762     0.53
elaps:  DHSCF2            1       3.335       3.335     2.34
elaps:  REORD           178       0.002       0.317     0.22
elaps:  POISON           23       0.621      14.275    10.01
elaps:  DHSCF3           22       5.232     115.096    80.71
elaps:  rhoofd           22       0.026       0.562     0.39
elaps:  cellXC           22       0.688      15.131    10.61
elaps:  vmat             22       1.677      36.884    25.86
elaps:  MolMec            2       0.000       0.000     0.00
elaps:  diagon           21       0.363       7.629     5.35
elaps:  r-eigvec         21       0.355       7.459     5.23
elaps:  r-buildHS        21       0.000       0.001     0.00
elaps:  rdiag            22       0.376       8.264     5.79
elaps:  rdiag1           22       0.008       0.184     0.13
elaps:  rdiag2           22       0.075       1.646     1.15
elaps:  rdiag3           22       0.230       5.065     3.55
elaps:  rdiag4           22       0.019       0.422     0.30
elaps:  r-buildD         21       0.008       0.163     0.11
elaps:  DHSCF4            1       0.303       0.303     0.21
elaps:  dfscf             1       0.291       0.291     0.20
elaps:  overfsm           1       0.002       0.002     0.00
elaps:  optical           1       6.100       6.100     4.28
elaps:  phirphiopt        1       2.112       2.112     1.48
elaps:  transrate         1       2.788       2.788     1.96
  
>> End of run:  10-MAY-2012  17:35:35
