#            ENERGY              s1              s2              total
        -32.07611079        0.00000232        0.00000227        0.00000459
        -32.00740678        0.00008919        0.00008784        0.00017703
        -31.93870276        0.00136939        0.00135484        0.00272424
        -31.86999875        0.00874031        0.00868401        0.01742432
        -31.80129474        0.02841262        0.02831488        0.05672750
        -31.73259073        0.06445097        0.06432212        0.12877309
        -31.66388671        0.09761700        0.09760203        0.19521903
        -31.59518270        0.08449622        0.08463569        0.16913191
        -31.52647869        0.06965681        0.06962183        0.13927865
        -31.45777468        0.09461412        0.09432695        0.18894107
        -31.38907067        0.12111052        0.12087953        0.24199005
        -31.32036665        0.12006539        0.12010998        0.24017538
        -31.25166264        0.10746803        0.10757980        0.21504784
        -31.18295863        0.09395551        0.09407594        0.18803145
        -31.11425462        0.07092807        0.07113402        0.14206209
        -31.04555060        0.04200604        0.04213871        0.08414476
        -30.97684659        0.02444109        0.02445416        0.04889525
        -30.90814258        0.02001502        0.02004020        0.04005521
        -30.83943857        0.01569326        0.01575821        0.03145147
        -30.77073455        0.00677347        0.00680805        0.01358151
        -30.70203054        0.00134628        0.00135270        0.00269898
        -30.63332653        0.00012259        0.00012311        0.00024570
        -30.56462252        0.00000579        0.00000581        0.00001161
        -30.49591851        0.00000016        0.00000016        0.00000032
        -30.42721449        0.00000000        0.00000000        0.00000001
        -30.35851048        0.00000000        0.00000000        0.00000000
        -30.28980647        0.00000000        0.00000000        0.00000000
        -30.22110246        0.00001176        0.00001155        0.00002331
        -30.15239844        0.00034735        0.00034253        0.00068988
        -30.08369443        0.00424234        0.00420021        0.00844255
        -30.01499042        0.02234157        0.02220597        0.04454754
        -29.94628641        0.05378835        0.05366583        0.10745418
        -29.87758239        0.06748170        0.06755775        0.13503945
        -29.80887838        0.05914173        0.05929054        0.11843227
        -29.74017437        0.05040685        0.05045548        0.10086233
        -29.67147036        0.04927674        0.04916635        0.09844308
        -29.60276634        0.06642619        0.06610532        0.13253151
        -29.53406233        0.09158638        0.09134854        0.18293492
        -29.46535832        0.09842352        0.09857219        0.19699571
        -29.39665431        0.07909119        0.07937938        0.15847057
        -29.32795030        0.04485381        0.04500691        0.08986072
        -29.25924628        0.02536121        0.02539347        0.05075468
        -29.19054227        0.02105251        0.02112913        0.04218165
        -29.12183826        0.01429917        0.01438670        0.02868587
        -29.05313425        0.00542125        0.00546077        0.01088202
        -28.98443023        0.00113567        0.00114616        0.00228183
        -28.91572622        0.00014909        0.00015086        0.00029995
        -28.84702221        0.00001339        0.00001356        0.00002695
        -28.77831820        0.00000076        0.00000077        0.00000153
        -28.70961418        0.00000002        0.00000002        0.00000004
        -28.64091017        0.00000000        0.00000000        0.00000000
        -28.57220616        0.00000000        0.00000000        0.00000000
        -28.50350215        0.00000000        0.00000000        0.00000000
        -28.43479814        0.00000000        0.00000000        0.00000000
        -28.36609412        0.00000000        0.00000000        0.00000000
        -28.29739011        0.00000000        0.00000000        0.00000000
        -28.22868610        0.00000000        0.00000000        0.00000000
        -28.15998209        0.00000000        0.00000000        0.00000000
        -28.09127807        0.00000000        0.00000000        0.00000000
        -28.02257406        0.00000000        0.00000000        0.00000000
        -27.95387005        0.00000000        0.00000000        0.00000000
        -27.88516604        0.00000000        0.00000000        0.00000000
        -27.81646202        0.00000000        0.00000000        0.00000000
        -27.74775801        0.00000000        0.00000000        0.00000000
        -27.67905400        0.00000000        0.00000000        0.00000000
        -27.61034999        0.00000000        0.00000000        0.00000000
        -27.54164597        0.00000000        0.00000000        0.00000000
        -27.47294196        0.00000000        0.00000000        0.00000000
        -27.40423795        0.00000000        0.00000000        0.00000000
        -27.33553394        0.00000000        0.00000000        0.00000000
        -27.26682993        0.00000000        0.00000000        0.00000000
        -27.19812591        0.00000000        0.00000000        0.00000000
        -27.12942190        0.00000000        0.00000000        0.00000000
        -27.06071789        0.00000000        0.00000000        0.00000000
        -26.99201388        0.00000000        0.00000000        0.00000000
        -26.92330986        0.00000000        0.00000000        0.00000000
        -26.85460585        0.00000000        0.00000000        0.00000000
        -26.78590184        0.00000000        0.00000000        0.00000000
        -26.71719783        0.00000000        0.00000000        0.00000000
        -26.64849381        0.00000000        0.00000000        0.00000000
        -26.57978980        0.00000000        0.00000000        0.00000000
        -26.51108579        0.00000000        0.00000000        0.00000000
        -26.44238178        0.00000000        0.00000000        0.00000000
        -26.37367777        0.00000000        0.00000000        0.00000000
        -26.30497375        0.00000000        0.00000000        0.00000000
        -26.23626974        0.00000000        0.00000000        0.00000000
        -26.16756573        0.00000000        0.00000000        0.00000000
        -26.09886172        0.00000000        0.00000000        0.00000000
        -26.03015770        0.00000000        0.00000000        0.00000000
        -25.96145369        0.00000000        0.00000000        0.00000000
        -25.89274968        0.00000000        0.00000000        0.00000000
        -25.82404567        0.00000000        0.00000000        0.00000000
        -25.75534165        0.00000000        0.00000000        0.00000000
        -25.68663764        0.00000000        0.00000000        0.00000000
        -25.61793363        0.00000000        0.00000000        0.00000000
        -25.54922962        0.00000000        0.00000000        0.00000000
        -25.48052560        0.00000000        0.00000000        0.00000000
        -25.41182159        0.00000000        0.00000000        0.00000000
        -25.34311758        0.00000000        0.00000000        0.00000000
        -25.27441357        0.00000000        0.00000000        0.00000000
        -25.20570956        0.00000000        0.00000000        0.00000000
        -25.13700554        0.00000000        0.00000000        0.00000000
        -25.06830153        0.00000000        0.00000000        0.00000000
        -24.99959752        0.00000000        0.00000000        0.00000000
        -24.93089351        0.00000000        0.00000000        0.00000000
        -24.86218949        0.00000000        0.00000000        0.00000000
        -24.79348548        0.00000000        0.00000000        0.00000000
        -24.72478147        0.00000000        0.00000000        0.00000000
        -24.65607746        0.00000000        0.00000000        0.00000000
        -24.58737344        0.00000000        0.00000000        0.00000000
        -24.51866943        0.00000000        0.00000000        0.00000000
        -24.44996542        0.00000000        0.00000000        0.00000000
        -24.38126141        0.00000000        0.00000000        0.00000000
        -24.31255740        0.00000000        0.00000000        0.00000000
        -24.24385338        0.00000000        0.00000000        0.00000000
        -24.17514937        0.00000000        0.00000000        0.00000000
        -24.10644536        0.00000000        0.00000000        0.00000000
        -24.03774135        0.00000000        0.00000000        0.00000000
        -23.96903733        0.00000000        0.00000000        0.00000000
        -23.90033332        0.00000000        0.00000000        0.00000000
        -23.83162931        0.00000000        0.00000000        0.00000000
        -23.76292530        0.00000000        0.00000000        0.00000000
        -23.69422128        0.00000000        0.00000000        0.00000000
        -23.62551727        0.00000000        0.00000000        0.00000000
        -23.55681326        0.00000000        0.00000000        0.00000000
        -23.48810925        0.00000000        0.00000000        0.00000000
        -23.41940523        0.00000000        0.00000000        0.00000000
        -23.35070122        0.00000000        0.00000000        0.00000000
        -23.28199721        0.00000000        0.00000000        0.00000000
        -23.21329320        0.00000000        0.00000000        0.00000000
        -23.14458919        0.00000000        0.00000000        0.00000000
        -23.07588517        0.00000000        0.00000000        0.00000000
        -23.00718116        0.00000000        0.00000000        0.00000000
        -22.93847715        0.00000000        0.00000000        0.00000000
        -22.86977314        0.00000000        0.00000000        0.00000000
        -22.80106912        0.00000000        0.00000000        0.00000000
        -22.73236511        0.00000000        0.00000000        0.00000000
        -22.66366110        0.00000000        0.00000000        0.00000000
        -22.59495709        0.00000000        0.00000000        0.00000000
        -22.52625307        0.00000000        0.00000000        0.00000000
        -22.45754906        0.00000000        0.00000000        0.00000000
        -22.38884505        0.00000000        0.00000000        0.00000000
        -22.32014104        0.00000000        0.00000000        0.00000000
        -22.25143703        0.00000000        0.00000000        0.00000000
        -22.18273301        0.00000000        0.00000000        0.00000000
        -22.11402900        0.00000000        0.00000000        0.00000000
        -22.04532499        0.00000000        0.00000000        0.00000000
        -21.97662098        0.00000000        0.00000000        0.00000000
        -21.90791696        0.00000000        0.00000000        0.00000000
        -21.83921295        0.00000000        0.00000000        0.00000000
        -21.77050894        0.00000000        0.00000000        0.00000000
        -21.70180493        0.00000000        0.00000000        0.00000000
        -21.63310091        0.00000000        0.00000000        0.00000000
        -21.56439690        0.00000000        0.00000000        0.00000000
        -21.49569289        0.00000000        0.00000000        0.00000000
        -21.42698888        0.00000000        0.00000000        0.00000000
        -21.35828486        0.00000000        0.00000000        0.00000000
        -21.28958085        0.00000000        0.00000000        0.00000000
        -21.22087684        0.00000000        0.00000000        0.00000000
        -21.15217283        0.00000000        0.00000000        0.00000000
        -21.08346882        0.00000000        0.00000000        0.00000000
        -21.01476480        0.00000000        0.00000000        0.00000000
        -20.94606079        0.00000000        0.00000000        0.00000000
        -20.87735678        0.00000000        0.00000000        0.00000000
        -20.80865277        0.00000000        0.00000000        0.00000000
        -20.73994875        0.00000001        0.00000001        0.00000003
        -20.67124474        0.00000233        0.00000227        0.00000460
        -20.60254073        0.00005211        0.00005095        0.00010306
        -20.53383672        0.00047334        0.00046573        0.00093907
        -20.46513270        0.00179614        0.00178020        0.00357634
        -20.39642869        0.00355727        0.00355112        0.00710839
        -20.32772468        0.00621119        0.00621593        0.01242712
        -20.25902067        0.00986382        0.00987043        0.01973425
        -20.19031666        0.01098339        0.01099946        0.02198285
        -20.12161264        0.00913540        0.00915435        0.01828975
        -20.05290863        0.00671972        0.00672433        0.01344405
        -19.98420462        0.00628668        0.00628040        0.01256708
        -19.91550061        0.00748783        0.00748342        0.01497125
        -19.84679659        0.00873796        0.00873354        0.01747150
        -19.77809258        0.00942494        0.00940592        0.01883086
        -19.70938857        0.01003669        0.01001728        0.02005397
        -19.64068456        0.01069842        0.01069211        0.02139053
        -19.57198054        0.01109985        0.01109679        0.02219664
        -19.50327653        0.01115995        0.01115176        0.02231171
        -19.43457252        0.01114638        0.01113167        0.02227805
        -19.36586851        0.01127457        0.01125975        0.02253432
        -19.29716449        0.01115191        0.01114917        0.02230108
        -19.22846048        0.01024058        0.01024607        0.02048665
        -19.15975647        0.00934618        0.00935295        0.01869912
        -19.09105246        0.00906423        0.00907028        0.01813451
        -19.02234845        0.00874753        0.00874887        0.01749641
        -18.95364443        0.00852900        0.00852815        0.01705714
        -18.88494042        0.00830210        0.00830354        0.01660563
        -18.81623641        0.00821348        0.00821112        0.01642460
        -18.74753240        0.00871651        0.00871172        0.01742823
        -18.67882838        0.00862873        0.00862668        0.01725541
        -18.61012437        0.00811321        0.00810777        0.01622098
        -18.54142036        0.00773684        0.00772389        0.01546073
        -18.47271635        0.00812312        0.00811458        0.01623770
        -18.40401233        0.00939329        0.00939186        0.01878514
        -18.33530832        0.01010937        0.01010514        0.02021451
        -18.26660431        0.00910882        0.00909940        0.01820822
        -18.19790030        0.00915038        0.00913700        0.01828738
        -18.12919629        0.00987062        0.00987434        0.01974496
        -18.06049227        0.00858573        0.00859215        0.01717787
        -17.99178826        0.00663441        0.00664684        0.01328125
        -17.92308425        0.00384230        0.00386821        0.00771051
        -17.85438024        0.00134834        0.00136115        0.00270948
        -17.78567622        0.00027122        0.00027326        0.00054448
        -17.71697221        0.00002795        0.00002807        0.00005603
        -17.64826820        0.00000127        0.00000127        0.00000253
        -17.57956419        0.00000002        0.00000002        0.00000005
        -17.51086017        0.00000000        0.00000000        0.00000000
        -17.44215616        0.00000000        0.00000000        0.00000000
        -17.37345215        0.00000000        0.00000000        0.00000000
        -17.30474814        0.00000061        0.00000061        0.00000122
        -17.23604412        0.00002145        0.00002135        0.00004280
        -17.16734011        0.00032234        0.00032049        0.00064284
        -17.09863610        0.00251985        0.00250629        0.00502614
        -17.02993209        0.01022228        0.01018284        0.02040512
        -16.96122808        0.02209176        0.02204458        0.04413634
        -16.89252406        0.03115539        0.03111426        0.06226966
        -16.82382005        0.03831056        0.03826410        0.07657465
        -16.75511604        0.03956657        0.03953058        0.07909715
        -16.68641203        0.03305011        0.03303204        0.06608215
        -16.61770801        0.02586213        0.02585381        0.05171593
        -16.54900400        0.02235936        0.02233022        0.04468958
        -16.48029999        0.02499578        0.02494875        0.04994452
        -16.41159598        0.02745534        0.02741797        0.05487331
        -16.34289196        0.02787403        0.02782782        0.05570185
        -16.27418795        0.03029458        0.03024039        0.06053497
        -16.20548394        0.03181872        0.03178805        0.06360677
        -16.13677993        0.03117639        0.03114846        0.06232485
        -16.06807592        0.03513061        0.03507598        0.07020659
        -15.99937190        0.03986525        0.03979779        0.07966304
        -15.93066789        0.04022174        0.04015568        0.08037742
        -15.86196388        0.03993427        0.03987375        0.07980801
        -15.79325987        0.04307222        0.04300973        0.08608195
        -15.72455585        0.04934842        0.04927483        0.09862325
        -15.65585184        0.05478661        0.05469627        0.10948288
        -15.58714783        0.06042544        0.06032015        0.12074559
        -15.51844382        0.06845439        0.06834376        0.13679815
        -15.44973980        0.07970324        0.07958184        0.15928508
        -15.38103579        0.09124300        0.09108461        0.18232761
        -15.31233178        0.09993935        0.09975949        0.19969884
        -15.24362777        0.10779184        0.10763407        0.21542591
        -15.17492375        0.11759045        0.11744168        0.23503213
        -15.10621974        0.12161188        0.12145361        0.24306549
        -15.03751573        0.12137132        0.12114139        0.24251271
        -14.96881172        0.12652589        0.12625423        0.25278012
        -14.90010771        0.13379136        0.13362467        0.26741603
        -14.83140369        0.13405930        0.13401455        0.26807386
        -14.76269968        0.11695249        0.11686042        0.23381291
        -14.69399567        0.08839504        0.08831061        0.17670564
        -14.62529166        0.05809291        0.05817423        0.11626714
        -14.55658764        0.03312557        0.03327836        0.06640393
        -14.48788363        0.01466140        0.01477465        0.02943605
        -14.41917962        0.00410350        0.00414477        0.00824827
        -14.35047561        0.00065643        0.00066338        0.00131981
        -14.28177159        0.00010475        0.00010381        0.00020856
        -14.21306758        0.00098634        0.00096332        0.00194966
        -14.14436357        0.00790964        0.00777976        0.01568940
        -14.07565956        0.02699349        0.02673679        0.05373029
        -14.00695555        0.05176914        0.05156060        0.10332974
        -13.93825153        0.08825514        0.08810211        0.17635725
        -13.86954752        0.12902924        0.12895491        0.25798415
        -13.80084351        0.14072818        0.14067641        0.28140460
        -13.73213950        0.13391428        0.13369838        0.26761266
        -13.66343548        0.14234691        0.14187215        0.28421906
        -13.59473147        0.18045927        0.17985212        0.36031139
        -13.52602746        0.21624500        0.21582080        0.43206580
        -13.45732345        0.21753625        0.21733288        0.43486913
        -13.38861943        0.18604100        0.18595423        0.37199523
        -13.31991542        0.14664218        0.14656079        0.29320297
        -13.25121141        0.12521719        0.12512886        0.25034606
        -13.18250740        0.12472980        0.12461226        0.24934206
        -13.11380338        0.13314734        0.13307895        0.26622629
        -13.04509937        0.14016033        0.14011787        0.28027820
        -12.97639536        0.14973355        0.14959158        0.29932513
        -12.90769135        0.15569205        0.15550400        0.31119605
        -12.83898734        0.14519680        0.14500650        0.29020330
        -12.77028332        0.12786639        0.12764802        0.25551442
        -12.70157931        0.11533838        0.11510501        0.23044339
        -12.63287530        0.11193040        0.11175636        0.22368676
        -12.56417129        0.09836908        0.09840042        0.19676950
        -12.49546727        0.06965362        0.06979674        0.13945035
        -12.42676326        0.04727136        0.04732494        0.09459630
        -12.35805925        0.03178607        0.03178764        0.06357371
        -12.28935524        0.01838162        0.01837093        0.03675255
        -12.22065122        0.01184672        0.01182603        0.02367275
        -12.15194721        0.01356355        0.01350706        0.02707061
        -12.08324320        0.02733272        0.02708229        0.05441501
        -12.01453919        0.05697125        0.05649252        0.11346377
        -11.94583517        0.07861881        0.07826164        0.15688045
        -11.87713116        0.08826499        0.08784128        0.17610628
        -11.80842715        0.12438647        0.12380068        0.24818714
        -11.73972314        0.17277198        0.17206171        0.34483369
        -11.67101913        0.21392648        0.21278781        0.42671429
        -11.60231511        0.24247424        0.24115188        0.48362612
        -11.53361110        0.22741840        0.22640562        0.45382402
        -11.46490709        0.18781838        0.18692748        0.37474586
        -11.39620308        0.17366742        0.17278936        0.34645677
        -11.32749906        0.18114880        0.18020325        0.36135205
        -11.25879505        0.19157431        0.19050273        0.38207704
        -11.19009104        0.18612377        0.18545203        0.37157580
        -11.12138703        0.15421282        0.15396901        0.30818183
        -11.05268301        0.12808032        0.12758900        0.25566932
        -10.98397900        0.11517865        0.11448680        0.22966545
        -10.91527499        0.09485819        0.09434392        0.18920211
        -10.84657098        0.09994032        0.09943473        0.19937505
        -10.77786697        0.14616121        0.14546824        0.29162945
        -10.70916295        0.18326553        0.18257937        0.36584490
        -10.64045894        0.17663454        0.17627324        0.35290778
        -10.57175493        0.17089959        0.17049309        0.34139268
        -10.50305092        0.20764325        0.20666352        0.41430677
        -10.43434690        0.25340835        0.25146039        0.50486874
        -10.36564289        0.27481573        0.27143746        0.54625318
        -10.29693888        0.30180548        0.29833973        0.60014521
        -10.22823487        0.33756651        0.33559608        0.67316258
        -10.15953085        0.35669246        0.35563075        0.71232321
        -10.09082684        0.34493449        0.34382184        0.68875633
        -10.02212283        0.31558920        0.31394769        0.62953688
         -9.95341882        0.31570330        0.31307884        0.62878214
         -9.88471480        0.37341516        0.37023803        0.74365319
         -9.81601079        0.44557236        0.44287192        0.88844428
         -9.74730678        0.47865610        0.47612804        0.95478414
         -9.67860277        0.45659169        0.45379929        0.91039098
         -9.60989876        0.45373235        0.45039654        0.90412890
         -9.54119474        0.49905116        0.49573567        0.99478684
         -9.47249073        0.53241856        0.52915711        1.06157567
         -9.40378672        0.53070259        0.52697363        1.05767622
         -9.33508271        0.51026206        0.50703026        1.01729232
         -9.26637869        0.48741360        0.48473488        0.97214848
         -9.19767468        0.47697873        0.47379883        0.95077756
         -9.12897067        0.45739100        0.45356822        0.91095921
         -9.06026666        0.44079152        0.43610541        0.87689693
         -8.99156264        0.46262935        0.45674831        0.91937766
         -8.92285863        0.51749702        0.51089055        1.02838757
         -8.85415462        0.55044895        0.54416024        1.09460919
         -8.78545061        0.52441371        0.51931899        1.04373270
         -8.71674660        0.48161799        0.47758439        0.95920238
         -8.64804258        0.44902550        0.44520604        0.89423153
         -8.57933857        0.41021037        0.40620705        0.81641742
         -8.51063456        0.36070095        0.35568763        0.71638858
         -8.44193055        0.42130785        0.40872546        0.83003331
         -8.37322653        1.04975788        1.01083676        2.06059464
         -8.30452252        2.37673918        2.32328026        4.70001944
         -8.23581851        2.83320249        2.81766624        5.65086873
         -8.16711450        1.91301544        1.91935316        3.83236860
         -8.09841048        1.14593803        1.12793615        2.27387418
         -8.02970647        0.87843402        0.81636225        1.69479627
         -7.96100246        0.94859565        0.80539871        1.75399435
         -7.89229845        1.44654369        1.12388888        2.57043257
         -7.82359443        2.15905260        1.72179111        3.88084371
         -7.75489042        2.42677482        2.28094793        4.70772275
         -7.68618641        2.29802062        2.54511973        4.84314035
         -7.61748240        2.66890990        3.01382859        5.68273849
         -7.54877839        3.46698008        3.67746616        7.14444624
         -7.48007437        4.44523172        4.38947463        8.83470635
         -7.41137036        5.47380734        5.12298091       10.59678825
         -7.34266635        6.28669752        5.86695669       12.15365420
         -7.27396234        6.19627783        6.19357780       12.38985564
         -7.20525832        4.22708659        4.76706650        8.99415309
         -7.13655431        1.97560299        2.38889925        4.36450224
         -7.06785030        1.41707213        1.42421586        2.84128799
         -6.99914629        2.05966855        1.98236237        4.04203092
         -6.93044227        2.85604337        2.85133703        5.70738040
         -6.86173826        3.62903673        3.57408726        7.20312400
         -6.79303425        3.35643662        3.37323527        6.72967189
         -6.72433024        2.66079942        2.65765036        5.31844978
         -6.65562623        2.64213877        2.52096329        5.16310207
         -6.58692221        2.31865903        2.31533863        4.63399766
         -6.51821820        1.64434748        1.79281437        3.43716185
         -6.44951419        0.94689127        1.11298460        2.05987587
         -6.38081018        0.61555350        0.65721339        1.27276690
         -6.31210616        0.72617659        0.66223859        1.38841518
         -6.24340215        0.91279496        0.86582629        1.77862126
         -6.17469814        0.86034894        0.89876274        1.75911168
         -6.10599413        0.76576348        0.79447718        1.56024066
         -6.03729011        0.76557945        0.75950821        1.52508765
         -5.96858610        0.78858223        0.75280655        1.54138878
         -5.89988209        0.96430211        0.90096536        1.86526747
         -5.83117808        1.17564691        1.13923912        2.31488603
         -5.76247406        1.46171786        1.42826043        2.88997830
         -5.69377005        1.87141279        1.83222278        3.70363556
         -5.62506604        1.95352606        1.95171493        3.90524099
         -5.55636203        1.54299919        1.56615778        3.10915696
         -5.48765802        1.00674787        1.02404118        2.03078905
         -5.41895400        0.74242584        0.78208446        1.52451029
         -5.35024999        0.63770708        0.70756862        1.34527571
         -5.28154598        0.54843226        0.58726139        1.13569365
         -5.21284197        0.44676821        0.46193336        0.90870157
         -5.14413795        0.37807608        0.39347230        0.77154838
         -5.07543394        0.31948485        0.33321656        0.65270141
         -5.00672993        0.24865912        0.25923990        0.50789902
         -4.93802592        0.32973213        0.33712040        0.66685252
         -4.86932190        1.07643946        1.05922455        2.13566401
         -4.80061789        2.78216080        2.62962755        5.41178835
         -4.73191388        4.66620383        4.03272835        8.69893218