#            ENERGY              s1              s2              total
        -32.07611079        0.00000218        0.00000214        0.00000432
        -32.00740678        0.00008411        0.00008275        0.00016686
        -31.93870276        0.00129887        0.00128370        0.00258257
        -31.86999875        0.00844207        0.00837929        0.01682136
        -31.80129474        0.02902721        0.02890233        0.05792954
        -31.73259073        0.07124154        0.07105500        0.14229654
        -31.66388671        0.11347128        0.11339637        0.22686765
        -31.59518270        0.10035814        0.10049117        0.20084931
        -31.52647869        0.07104805        0.07107841        0.14212646
        -31.45777468        0.07172942        0.07156206        0.14329147
        -31.38907067        0.08030673        0.08011900        0.16042573
        -31.32036665        0.07666463        0.07658941        0.15325404
        -31.25166264        0.07083223        0.07082874        0.14166097
        -31.18295863        0.06289118        0.06294736        0.12583854
        -31.11425462        0.04491027        0.04500722        0.08991749
        -31.04555060        0.02381531        0.02386643        0.04768174
        -30.97684659        0.01126033        0.01125110        0.02251144
        -30.90814258        0.00709557        0.00708490        0.01418047
        -30.83943857        0.00476642        0.00477540        0.00954182
        -30.77073455        0.00201140        0.00201854        0.00402995
        -30.70203054        0.00042872        0.00043015        0.00085887
        -30.63332653        0.00004416        0.00004428        0.00008844
        -30.56462252        0.00000239        0.00000239        0.00000478
        -30.49591851        0.00000008        0.00000008        0.00000015
        -30.42721449        0.00000000        0.00000000        0.00000000
        -30.35851048        0.00000000        0.00000000        0.00000000
        -30.28980647        0.00000000        0.00000000        0.00000000
        -30.22110246        0.00001547        0.00001517        0.00003064
        -30.15239844        0.00043701        0.00043045        0.00086746
        -30.08369443        0.00505675        0.00500207        0.01005882
        -30.01499042        0.02513641        0.02496917        0.05010557
        -29.94628641        0.05830457        0.05815185        0.11645642
        -29.87758239        0.07427234        0.07433111        0.14860346
        -29.80887838        0.06500151        0.06515217        0.13015368
        -29.74017437        0.04676552        0.04682436        0.09358988
        -29.67147036        0.04175123        0.04165090        0.08340213
        -29.60276634        0.05968508        0.05940565        0.11909073
        -29.53406233        0.08335345        0.08312927        0.16648271
        -29.46535832        0.09122098        0.09127710        0.18249808
        -29.39665431        0.07174148        0.07191547        0.14365695
        -29.32795030        0.03618719        0.03627737        0.07246456
        -29.25924628        0.01502502        0.01502084        0.03004586
        -29.19054227        0.00933408        0.00934591        0.01867999
        -29.12183826        0.00569216        0.00571940        0.01141156
        -29.05313425        0.00204196        0.00205486        0.00409682
        -28.98443023        0.00040989        0.00041300        0.00082290
        -28.91572622        0.00005389        0.00005433        0.00010822
        -28.84702221        0.00000452        0.00000455        0.00000907
        -28.77831820        0.00000015        0.00000015        0.00000030
        -28.70961418       -0.00000000       -0.00000000       -0.00000000
        -28.64091017       -0.00000000       -0.00000000       -0.00000000
        -28.57220616        0.00000000        0.00000000        0.00000000
        -28.50350215        0.00000000        0.00000000        0.00000000
        -28.43479814        0.00000000        0.00000000        0.00000000
        -28.36609412        0.00000000        0.00000000        0.00000000
        -28.29739011        0.00000000        0.00000000        0.00000000
        -28.22868610        0.00000000        0.00000000        0.00000000
        -28.15998209        0.00000000        0.00000000        0.00000000
        -28.09127807        0.00000000        0.00000000        0.00000000
        -28.02257406        0.00000000        0.00000000        0.00000000
        -27.95387005        0.00000000        0.00000000        0.00000000
        -27.88516604        0.00000000        0.00000000        0.00000000
        -27.81646202        0.00000000        0.00000000        0.00000000
        -27.74775801        0.00000000        0.00000000        0.00000000
        -27.67905400        0.00000000        0.00000000        0.00000000
        -27.61034999        0.00000000        0.00000000        0.00000000
        -27.54164597        0.00000000        0.00000000        0.00000000
        -27.47294196        0.00000000        0.00000000        0.00000000
        -27.40423795        0.00000000        0.00000000        0.00000000
        -27.33553394        0.00000000        0.00000000        0.00000000
        -27.26682993        0.00000000        0.00000000        0.00000000
        -27.19812591        0.00000000        0.00000000        0.00000000
        -27.12942190        0.00000000        0.00000000        0.00000000
        -27.06071789        0.00000000        0.00000000        0.00000000
        -26.99201388        0.00000000        0.00000000        0.00000000
        -26.92330986        0.00000000        0.00000000        0.00000000
        -26.85460585        0.00000000        0.00000000        0.00000000
        -26.78590184        0.00000000        0.00000000        0.00000000
        -26.71719783        0.00000000        0.00000000        0.00000000
        -26.64849381        0.00000000        0.00000000        0.00000000
        -26.57978980        0.00000000        0.00000000        0.00000000
        -26.51108579        0.00000000        0.00000000        0.00000000
        -26.44238178        0.00000000        0.00000000        0.00000000
        -26.37367777        0.00000000        0.00000000        0.00000000
        -26.30497375        0.00000000        0.00000000        0.00000000
        -26.23626974        0.00000000        0.00000000        0.00000000
        -26.16756573        0.00000000        0.00000000        0.00000000
        -26.09886172        0.00000000        0.00000000        0.00000000
        -26.03015770        0.00000000        0.00000000        0.00000000
        -25.96145369        0.00000000        0.00000000        0.00000000
        -25.89274968        0.00000000        0.00000000        0.00000000
        -25.82404567        0.00000000        0.00000000        0.00000000
        -25.75534165        0.00000000        0.00000000        0.00000000
        -25.68663764        0.00000000        0.00000000        0.00000000
        -25.61793363        0.00000000        0.00000000        0.00000000
        -25.54922962        0.00000000        0.00000000        0.00000000
        -25.48052560        0.00000000        0.00000000        0.00000000
        -25.41182159        0.00000000        0.00000000        0.00000000
        -25.34311758        0.00000000        0.00000000        0.00000000
        -25.27441357        0.00000000        0.00000000        0.00000000
        -25.20570956        0.00000000        0.00000000        0.00000000
        -25.13700554        0.00000000        0.00000000        0.00000000
        -25.06830153        0.00000000        0.00000000        0.00000000
        -24.99959752        0.00000000        0.00000000        0.00000000
        -24.93089351        0.00000000        0.00000000        0.00000000
        -24.86218949        0.00000000        0.00000000        0.00000000
        -24.79348548        0.00000000        0.00000000        0.00000000
        -24.72478147        0.00000000        0.00000000        0.00000000
        -24.65607746        0.00000000        0.00000000        0.00000000
        -24.58737344        0.00000000        0.00000000        0.00000000
        -24.51866943        0.00000000        0.00000000        0.00000000
        -24.44996542        0.00000000        0.00000000        0.00000000
        -24.38126141        0.00000000        0.00000000        0.00000000
        -24.31255740        0.00000000        0.00000000        0.00000000
        -24.24385338        0.00000000        0.00000000        0.00000000
        -24.17514937        0.00000000        0.00000000        0.00000000
        -24.10644536        0.00000000        0.00000000        0.00000000
        -24.03774135        0.00000000        0.00000000        0.00000000
        -23.96903733        0.00000000        0.00000000        0.00000000
        -23.90033332        0.00000000        0.00000000        0.00000000
        -23.83162931        0.00000000        0.00000000        0.00000000
        -23.76292530        0.00000000        0.00000000        0.00000000
        -23.69422128        0.00000000        0.00000000        0.00000000
        -23.62551727        0.00000000        0.00000000        0.00000000
        -23.55681326        0.00000000        0.00000000        0.00000000
        -23.48810925        0.00000000        0.00000000        0.00000000
        -23.41940523        0.00000000        0.00000000        0.00000000
        -23.35070122        0.00000000        0.00000000        0.00000000
        -23.28199721        0.00000000        0.00000000        0.00000000
        -23.21329320        0.00000000        0.00000000        0.00000000
        -23.14458919        0.00000000        0.00000000        0.00000000
        -23.07588517        0.00000000        0.00000000        0.00000000
        -23.00718116        0.00000000        0.00000000        0.00000000
        -22.93847715        0.00000000        0.00000000        0.00000000
        -22.86977314        0.00000000        0.00000000        0.00000000
        -22.80106912        0.00000000        0.00000000        0.00000000
        -22.73236511        0.00000000        0.00000000        0.00000000
        -22.66366110        0.00000000        0.00000000        0.00000000
        -22.59495709        0.00000000        0.00000000        0.00000000
        -22.52625307        0.00000000        0.00000000        0.00000000
        -22.45754906        0.00000000        0.00000000        0.00000000
        -22.38884505        0.00000000        0.00000000        0.00000000
        -22.32014104        0.00000000        0.00000000        0.00000000
        -22.25143703        0.00000000        0.00000000        0.00000000
        -22.18273301        0.00000000        0.00000000        0.00000000
        -22.11402900        0.00000000        0.00000000        0.00000000
        -22.04532499        0.00000000        0.00000000        0.00000000
        -21.97662098        0.00000000        0.00000000        0.00000000
        -21.90791696        0.00000000        0.00000000        0.00000000
        -21.83921295        0.00000000        0.00000000        0.00000000
        -21.77050894        0.00000000        0.00000000        0.00000000
        -21.70180493        0.00000000        0.00000000        0.00000000
        -21.63310091        0.00000000        0.00000000        0.00000000
        -21.56439690        0.00000000        0.00000000        0.00000000
        -21.49569289        0.00000000        0.00000000        0.00000000
        -21.42698888        0.00000000        0.00000000        0.00000000
        -21.35828486        0.00000000        0.00000000        0.00000000
        -21.28958085        0.00000000        0.00000000        0.00000000
        -21.22087684        0.00000000        0.00000000        0.00000000
        -21.15217283        0.00000000        0.00000000        0.00000000
        -21.08346882        0.00000000        0.00000000        0.00000000
        -21.01476480        0.00000000        0.00000000        0.00000000
        -20.94606079        0.00000000        0.00000000        0.00000000
        -20.87735678        0.00000000        0.00000000        0.00000000
        -20.80865277        0.00000000        0.00000000        0.00000000
        -20.73994875        0.00000001        0.00000001        0.00000003
        -20.67124474        0.00000374        0.00000365        0.00000739
        -20.60254073        0.00009417        0.00009241        0.00018658
        -20.53383672        0.00098651        0.00097412        0.00196063
        -20.46513270        0.00440271        0.00437276        0.00877547
        -20.39642869        0.00951745        0.00949367        0.01901112
        -20.32772468        0.01394156        0.01392329        0.02786485
        -20.25902067        0.01829820        0.01825582        0.03655402
        -20.19031666        0.02188278        0.02180203        0.04368481
        -20.12161264        0.02481021        0.02472885        0.04953907
        -20.05290863        0.02364423        0.02361147        0.04725571
        -19.98420462        0.01983444        0.01980281        0.03963725
        -19.91550061        0.01693809        0.01688432        0.03382241
        -19.84679659        0.01606890        0.01600091        0.03206981
        -19.77809258        0.01645884        0.01637803        0.03283687
        -19.70938857        0.01625056        0.01617761        0.03242817
        -19.64068456        0.01491002        0.01485905        0.02976907
        -19.57198054        0.01397031        0.01392301        0.02789331
        -19.50327653        0.01414140        0.01408756        0.02822896
        -19.43457252        0.01432517        0.01427248        0.02859765
        -19.36586851        0.01386348        0.01381656        0.02768004
        -19.29716449        0.01305889        0.01301664        0.02607552
        -19.22846048        0.01236892        0.01232558        0.02469450
        -19.15975647        0.01225776        0.01221862        0.02447638
        -19.09105246        0.01240090        0.01236724        0.02476814
        -19.02234845        0.01258657        0.01255045        0.02513702
        -18.95364443        0.01287578        0.01283784        0.02571362
        -18.88494042        0.01319685        0.01315785        0.02635469
        -18.81623641        0.01328563        0.01324623        0.02653185
        -18.74753240        0.01279679        0.01276110        0.02555788
        -18.67882838        0.01220669        0.01217099        0.02437768
        -18.61012437        0.01224696        0.01220095        0.02444790
        -18.54142036        0.01246162        0.01240339        0.02486501
        -18.47271635        0.01229847        0.01224708        0.02454556
        -18.40401233        0.01276658        0.01272113        0.02548771
        -18.33530832        0.01453371        0.01448005        0.02901376
        -18.26660431        0.01529971        0.01523503        0.03053473
        -18.19790030        0.01634047        0.01626082        0.03260129
        -18.12919629        0.01673004        0.01666687        0.03339691
        -18.06049227        0.01421462        0.01414538        0.02836000
        -17.99178826        0.01102783        0.01098154        0.02200937
        -17.92308425        0.00591828        0.00593791        0.01185619
        -17.85438024        0.00166500        0.00168489        0.00334989
        -17.78567622        0.00024339        0.00024707        0.00049047
        -17.71697221        0.00001928        0.00001950        0.00003877
        -17.64826820        0.00000074        0.00000074        0.00000148
        -17.57956419        0.00000001        0.00000001        0.00000002
        -17.51086017        0.00000000        0.00000000        0.00000000
        -17.44215616        0.00000000        0.00000000        0.00000000
        -17.37345215        0.00000000        0.00000000        0.00000000
        -17.30474814        0.00000061        0.00000061        0.00000123
        -17.23604412        0.00002440        0.00002426        0.00004866
        -17.16734011        0.00040177        0.00039929        0.00080106
        -17.09863610        0.00340621        0.00338824        0.00679445
        -17.02993209        0.01450771        0.01445661        0.02896431
        -16.96122808        0.03187236        0.03181411        0.06368647
        -16.89252406        0.04391742        0.04386930        0.08778672
        -16.82382005        0.05151606        0.05145350        0.10296956
        -16.75511604        0.05177030        0.05170215        0.10347245
        -16.68641203        0.04142986        0.04138444        0.08281430
        -16.61770801        0.02969797        0.02968168        0.05937965
        -16.54900400        0.02373340        0.02369677        0.04743017
        -16.48029999        0.02647808        0.02641086        0.05288894
        -16.41159598        0.03045867        0.03039591        0.06085458
        -16.34289196        0.03209613        0.03202934        0.06412547
        -16.27418795        0.03489430        0.03481665        0.06971095
        -16.20548394        0.03705875        0.03699395        0.07405270
        -16.13677993        0.03715267        0.03708587        0.07423854
        -16.06807592        0.04094394        0.04085443        0.08179837
        -15.99937190        0.04505430        0.04495933        0.09001363
        -15.93066789        0.04635699        0.04626226        0.09261925
        -15.86196388        0.04793666        0.04784863        0.09578529
        -15.79325987        0.05104938        0.05095986        0.10200924
        -15.72455585        0.05528917        0.05519353        0.11048270
        -15.65585184        0.05797744        0.05787658        0.11585402
        -15.58714783        0.06047353        0.06035912        0.12083265
        -15.51844382        0.06367007        0.06354427        0.12721434
        -15.44973980        0.06896568        0.06883608        0.13780176
        -15.38103579        0.07773367        0.07758448        0.15531814
        -15.31233178        0.08804871        0.08788773        0.17593644
        -15.24362777        0.10010717        0.09995929        0.20006646
        -15.17492375        0.11506155        0.11490686        0.22996841
        -15.10621974        0.12318425        0.12299522        0.24617947
        -15.03751573        0.12338875        0.12308918        0.24647793
        -14.96881172        0.12398661        0.12357042        0.24755703
        -14.90010771        0.12410350        0.12371683        0.24782033
        -14.83140369        0.11641695        0.11615444        0.23257139
        -14.76269968        0.09663632        0.09639806        0.19303438
        -14.69399567        0.06926100        0.06902161        0.13828261
        -14.62529166        0.04426876        0.04416026        0.08842903
        -14.55658764        0.02635248        0.02638321        0.05273569
        -14.48788363        0.01235374        0.01242645        0.02478019
        -14.41917962        0.00352823        0.00356225        0.00709048
        -14.35047561        0.00056584        0.00057187        0.00113771
        -14.28177159        0.00010435        0.00010330        0.00020765
        -14.21306758        0.00111566        0.00109275        0.00220841
        -14.14436357        0.00895880        0.00883649        0.01779529
        -14.07565956        0.03068631        0.03046823        0.06115453
        -14.00695555        0.05934515        0.05917742        0.11852257
        -13.93825153        0.10113368        0.10095178        0.20208545
        -13.86954752        0.14765750        0.14751754        0.29517504
        -13.80084351        0.16955565        0.16942566        0.33898131
        -13.73213950        0.17627529        0.17601808        0.35229337
        -13.66343548        0.18660731        0.18614536        0.37275268
        -13.59473147        0.22508480        0.22440773        0.44949252
        -13.52602746        0.26316453        0.26262279        0.52578732
        -13.45732345        0.25489836        0.25455621        0.50945457
        -13.38861943        0.21698400        0.21661703        0.43360102
        -13.31991542        0.18302838        0.18256537        0.36559375
        -13.25121141        0.16506764        0.16471886        0.32978650
        -13.18250740        0.15883926        0.15860078        0.31744004
        -13.11380338        0.15536577        0.15517905        0.31054482
        -13.04509937        0.15524014        0.15506329        0.31030343
        -12.97639536        0.16415994        0.16392405        0.32808399
        -12.90769135        0.17246786        0.17221709        0.34468495
        -12.83898734        0.16429207        0.16403010        0.32832216
        -12.77028332        0.14468374        0.14435213        0.28903586
        -12.70157931        0.13070857        0.13031761        0.26102618
        -12.63287530        0.12726195        0.12692247        0.25418442
        -12.56417129        0.11020037        0.11010436        0.22030473
        -12.49546727        0.07708553        0.07717168        0.15425721
        -12.42676326        0.05004020        0.05008422        0.10012442
        -12.35805925        0.03223516        0.03222121        0.06445637
        -12.28935524        0.01969544        0.01966714        0.03936258
        -12.22065122        0.01367100        0.01363438        0.02730539
        -12.15194721        0.01521771        0.01515441        0.03037212
        -12.08324320        0.02892593        0.02872148        0.05764741
        -12.01453919        0.05485318        0.05449348        0.10934666
        -11.94583517        0.07185716        0.07157641        0.14343357
        -11.87713116        0.08158027        0.08114637        0.16272664
        -11.80842715        0.11822156        0.11767537        0.23589693
        -11.73972314        0.16695670        0.16650372        0.33346042
        -11.67101913        0.20550579        0.20473800        0.41024379
        -11.60231511        0.22928409        0.22819728        0.45748137
        -11.53361110        0.21240337        0.21141381        0.42381719
        -11.46490709        0.17619628        0.17522211        0.35141839
        -11.39620308        0.16353968        0.16254066        0.32608034
        -11.32749906        0.16944449        0.16835247        0.33779696
        -11.25879505        0.17616323        0.17502890        0.35119212
        -11.19009104        0.16883100        0.16816777        0.33699878
        -11.12138703        0.14123863        0.14107063        0.28230926
        -11.05268301        0.11836921        0.11816093        0.23653014
        -10.98397900        0.10281152        0.10254272        0.20535424
        -10.91527499        0.08206636        0.08191512        0.16398148
        -10.84657098        0.08775643        0.08758628        0.17534271
        -10.77786697        0.12968877        0.12933214        0.25902091
        -10.70916295        0.15757399        0.15713152        0.31470551
        -10.64045894        0.14949117        0.14912627        0.29861744
        -10.57175493        0.14756295        0.14708740        0.29465035
        -10.50305092        0.17582497        0.17503996        0.35086493
        -10.43434690        0.20457083        0.20335672        0.40792754
        -10.36564289        0.21033314        0.20842832        0.41876146
        -10.29693888        0.21503663        0.21334670        0.42838333
        -10.22823487        0.22996739        0.22943403        0.45940142
        -10.15953085        0.25643994        0.25623887        0.51267881
        -10.09082684        0.27175056        0.27137820        0.54312875
        -10.02212283        0.24722291        0.24676701        0.49398992
         -9.95341882        0.23342960        0.23248673        0.46591633
         -9.88471480        0.26930327        0.26792698        0.53723025
         -9.81601079        0.31816946        0.31703020        0.63519966
         -9.74730678        0.34486713        0.34382506        0.68869218
         -9.67860277        0.33314626        0.33210277        0.66524903
         -9.60989876        0.31480600        0.31362556        0.62843156
         -9.54119474        0.31984426        0.31859134        0.63843561
         -9.47249073        0.33831921        0.33709946        0.67541867
         -9.40378672        0.35809058        0.35674523        0.71483581
         -9.33508271        0.36190981        0.36099300        0.72290281
         -9.26637869        0.35248576        0.35174676        0.70423251
         -9.19767468        0.35532170        0.35437703        0.70969874
         -9.12897067        0.33828303        0.33750681        0.67578984
         -9.06026666        0.31266418        0.31167463        0.62433881
         -8.99156264        0.32319812        0.32160152        0.64479964
         -8.92285863        0.35069869        0.34876631        0.69946500
         -8.85415462        0.36456993        0.36269494        0.72726487
         -8.78545061        0.35651252        0.35518190        0.71169442
         -8.71674660        0.32486481        0.32441308        0.64927790
         -8.64804258        0.27730383        0.27718112        0.55448495
         -8.57933857        0.22871392        0.22839103        0.45710495
         -8.51063456        0.18791452        0.18720547        0.37511999
         -8.44193055        0.17289532        0.17075908        0.34365441
         -8.37322653        0.26817502        0.26106297        0.52923799
         -8.30452252        0.51589381        0.50596210        1.02185591
         -8.23581851        0.62015634        0.61801459        1.23817094
         -8.16711450        0.45982707        0.46280063        0.92262770
         -8.09841048        0.31749453        0.31640591        0.63390044
         -8.02970647        0.25813524        0.24844729        0.50658253
         -7.96100246        0.26732344        0.23923016        0.50655360
         -7.89229845        0.38577204        0.31226612        0.69803816
         -7.82359443        0.57364562        0.45980065        1.03344627
         -7.75489042        0.69054979        0.63073205        1.32128184
         -7.68618641        0.80293906        0.84113408        1.64407314
         -7.61748240        1.15433663        1.23810263        2.39243926
         -7.54877839        1.54137226        1.60290573        3.14427799
         -7.48007437        1.87504896        1.83679076        3.71183971
         -7.41137036        2.29678237        2.11408712        4.41086949
         -7.34266635        2.67218484        2.45381927        5.12600412
         -7.27396234        2.62321957        2.61936601        5.24258558
         -7.20525832        1.77024395        2.03666424        3.80690819
         -7.13655431        0.83431351        1.04369104        1.87800455
         -7.06785030        0.61263133        0.63298344        1.24561477
         -6.99914629        0.94542980        0.91402466        1.85945446
         -6.93044227        1.49207864        1.48879803        2.98087666
         -6.86173826        1.90449799        1.90061401        3.80511200
         -6.79303425        1.70943085        1.69135764        3.40078849
         -6.72433024        1.48596174        1.40317411        2.88913585
         -6.65562623        1.54759866        1.45478120        3.00237987
         -6.58692221        1.42953995        1.46030498        2.88984493
         -6.51821820        1.37485525        1.45905962        2.83391487
         -6.44951419        1.51645666        1.55936149        3.07581815
         -6.38081018        1.66550913        1.63737728        3.30288641
         -6.31210616        1.82820940        1.74869708        3.57690648
         -6.24340215        1.78377945        1.75130730        3.53508674
         -6.17469814        1.37426555        1.41967281        2.79393836
         -6.10599413        1.09862677        1.10865104        2.20727781
         -6.03729011        1.03525374        1.04166398        2.07691772
         -5.96858610        0.91006589        0.93824968        1.84831556
         -5.89988209        0.91927652        0.89187838        1.81115490
         -5.83117808        1.06574753        1.01442211        2.08016964
         -5.76247406        1.26290010        1.27555837        2.53845847
         -5.69377005        1.49708047        1.53391393        3.03099440
         -5.62506604        1.59686361        1.60259663        3.19946024
         -5.55636203        1.38992124        1.37518206        2.76510330
         -5.48765802        1.07012859        1.04617852        2.11630711
         -5.41895400        1.20037688        1.16214275        2.36251963
         -5.35024999        1.70356745        1.65426415        3.35783159
         -5.28154598        1.93813003        1.88678540        3.82491543
         -5.21284197        1.75839133        1.73223194        3.49062326
         -5.14413795        1.45248174        1.48743429        2.93991602
         -5.07543394        1.14684485        1.20153154        2.34837639
         -5.00672993        0.87990231        0.91860037        1.79850268
         -4.93802592        0.60301933        0.64555945        1.24857878
         -4.86932190        0.65091232        0.68410678        1.33501910
         -4.80061789        1.29845499        1.25930340        2.55775839
         -4.73191388        2.03539994        1.81518982        3.85058976