#            ENERGY              s1              s2              total
        -32.07611079        0.00000011        0.00000011        0.00000022
        -32.00740678        0.00000432        0.00000425        0.00000857
        -31.93870276        0.00006682        0.00006609        0.00013291
        -31.86999875        0.00044014        0.00043716        0.00087730
        -31.80129474        0.00159550        0.00158915        0.00318464
        -31.73259073        0.00424769        0.00423709        0.00848477
        -31.66388671        0.00704414        0.00704089        0.01408502
        -31.59518270        0.00604984        0.00606032        0.01211017
        -31.52647869        0.00392963        0.00393449        0.00786412
        -31.45777468        0.00395973        0.00395526        0.00791499
        -31.38907067        0.00433264        0.00432626        0.00865890
        -31.32036665        0.00391943        0.00391465        0.00783407
        -31.25166264        0.00352722        0.00352585        0.00705307
        -31.18295863        0.00315297        0.00315614        0.00630910
        -31.11425462        0.00231750        0.00232268        0.00464018
        -31.04555060        0.00118025        0.00118378        0.00236403
        -30.97684659        0.00044590        0.00044638        0.00089228
        -30.90814258        0.00021882        0.00021863        0.00043745
        -30.83943857        0.00012021        0.00012053        0.00024074
        -30.77073455        0.00004209        0.00004231        0.00008441
        -30.70203054        0.00000809        0.00000813        0.00001621
        -30.63332653        0.00000082        0.00000082        0.00000164
        -30.56462252        0.00000005        0.00000005        0.00000010
        -30.49591851        0.00000000        0.00000000        0.00000000
        -30.42721449        0.00000000        0.00000000        0.00000000
        -30.35851048        0.00000000        0.00000000        0.00000000
        -30.28980647        0.00000000        0.00000000        0.00000000
        -30.22110246        0.00000120        0.00000118        0.00000238
        -30.15239844        0.00003491        0.00003438        0.00006930
        -30.08369443        0.00041805        0.00041348        0.00083154
        -30.01499042        0.00214607        0.00213172        0.00427779
        -29.94628641        0.00505320        0.00504064        0.01009384
        -29.87758239        0.00634837        0.00635522        0.01270358
        -29.80887838        0.00541031        0.00542413        0.01083443
        -29.74017437        0.00370818        0.00371395        0.00742213
        -29.67147036        0.00289309        0.00288858        0.00578167
        -29.60276634        0.00373677        0.00372221        0.00745898
        -29.53406233        0.00499712        0.00498518        0.00998229
        -29.46535832        0.00532386        0.00532810        0.01065196
        -29.39665431        0.00408949        0.00409935        0.00818884
        -29.32795030        0.00196242        0.00196750        0.00392991
        -29.25924628        0.00064404        0.00064476        0.00128880
        -29.19054227        0.00025693        0.00025712        0.00051406
        -29.12183826        0.00011335        0.00011371        0.00022707
        -29.05313425        0.00003240        0.00003254        0.00006494
        -28.98443023        0.00000822        0.00000824        0.00001646
        -28.91572622        0.00000257        0.00000257        0.00000514
        -28.84702221        0.00000044        0.00000044        0.00000089
        -28.77831820        0.00000003        0.00000003        0.00000006
        -28.70961418        0.00000000        0.00000000        0.00000000
        -28.64091017       -0.00000000       -0.00000000       -0.00000000
        -28.57220616        0.00000000        0.00000000        0.00000000
        -28.50350215        0.00000000        0.00000000        0.00000000
        -28.43479814        0.00000000        0.00000000        0.00000000
        -28.36609412        0.00000000        0.00000000        0.00000000
        -28.29739011        0.00000000        0.00000000        0.00000000
        -28.22868610        0.00000000        0.00000000        0.00000000
        -28.15998209        0.00000000        0.00000000        0.00000000
        -28.09127807        0.00000000        0.00000000        0.00000000
        -28.02257406        0.00000000        0.00000000        0.00000000
        -27.95387005        0.00000000        0.00000000        0.00000000
        -27.88516604        0.00000000        0.00000000        0.00000000
        -27.81646202        0.00000000        0.00000000        0.00000000
        -27.74775801        0.00000000        0.00000000        0.00000000
        -27.67905400        0.00000000        0.00000000        0.00000000
        -27.61034999        0.00000000        0.00000000        0.00000000
        -27.54164597        0.00000000        0.00000000        0.00000000
        -27.47294196        0.00000000        0.00000000        0.00000000
        -27.40423795        0.00000000        0.00000000        0.00000000
        -27.33553394        0.00000000        0.00000000        0.00000000
        -27.26682993        0.00000000        0.00000000        0.00000000
        -27.19812591        0.00000000        0.00000000        0.00000000
        -27.12942190        0.00000000        0.00000000        0.00000000
        -27.06071789        0.00000000        0.00000000        0.00000000
        -26.99201388        0.00000000        0.00000000        0.00000000
        -26.92330986        0.00000000        0.00000000        0.00000000
        -26.85460585        0.00000000        0.00000000        0.00000000
        -26.78590184        0.00000000        0.00000000        0.00000000
        -26.71719783        0.00000000        0.00000000        0.00000000
        -26.64849381        0.00000000        0.00000000        0.00000000
        -26.57978980        0.00000000        0.00000000        0.00000000
        -26.51108579        0.00000000        0.00000000        0.00000000
        -26.44238178        0.00000000        0.00000000        0.00000000
        -26.37367777        0.00000000        0.00000000        0.00000000
        -26.30497375        0.00000000        0.00000000        0.00000000
        -26.23626974        0.00000000        0.00000000        0.00000000
        -26.16756573        0.00000000        0.00000000        0.00000000
        -26.09886172        0.00000000        0.00000000        0.00000000
        -26.03015770        0.00000000        0.00000000        0.00000000
        -25.96145369        0.00000000        0.00000000        0.00000000
        -25.89274968        0.00000000        0.00000000        0.00000000
        -25.82404567        0.00000000        0.00000000        0.00000000
        -25.75534165        0.00000000        0.00000000        0.00000000
        -25.68663764        0.00000000        0.00000000        0.00000000
        -25.61793363        0.00000000        0.00000000        0.00000000
        -25.54922962        0.00000000        0.00000000        0.00000000
        -25.48052560        0.00000000        0.00000000        0.00000000
        -25.41182159        0.00000000        0.00000000        0.00000000
        -25.34311758        0.00000000        0.00000000        0.00000000
        -25.27441357        0.00000000        0.00000000        0.00000000
        -25.20570956        0.00000000        0.00000000        0.00000000
        -25.13700554        0.00000000        0.00000000        0.00000000
        -25.06830153        0.00000000        0.00000000        0.00000000
        -24.99959752        0.00000000        0.00000000        0.00000000
        -24.93089351        0.00000000        0.00000000        0.00000000
        -24.86218949        0.00000000        0.00000000        0.00000000
        -24.79348548        0.00000000        0.00000000        0.00000000
        -24.72478147        0.00000000        0.00000000        0.00000000
        -24.65607746        0.00000000        0.00000000        0.00000000
        -24.58737344        0.00000000        0.00000000        0.00000000
        -24.51866943        0.00000000        0.00000000        0.00000000
        -24.44996542        0.00000000        0.00000000        0.00000000
        -24.38126141        0.00000000        0.00000000        0.00000000
        -24.31255740        0.00000000        0.00000000        0.00000000
        -24.24385338        0.00000000        0.00000000        0.00000000
        -24.17514937        0.00000000        0.00000000        0.00000000
        -24.10644536        0.00000000        0.00000000        0.00000000
        -24.03774135        0.00000000        0.00000000        0.00000000
        -23.96903733        0.00000000        0.00000000        0.00000000
        -23.90033332        0.00000000        0.00000000        0.00000000
        -23.83162931        0.00000000        0.00000000        0.00000000
        -23.76292530        0.00000000        0.00000000        0.00000000
        -23.69422128        0.00000000        0.00000000        0.00000000
        -23.62551727        0.00000000        0.00000000        0.00000000
        -23.55681326        0.00000000        0.00000000        0.00000000
        -23.48810925        0.00000000        0.00000000        0.00000000
        -23.41940523        0.00000000        0.00000000        0.00000000
        -23.35070122        0.00000000        0.00000000        0.00000000
        -23.28199721        0.00000000        0.00000000        0.00000000
        -23.21329320        0.00000000        0.00000000        0.00000000
        -23.14458919        0.00000000        0.00000000        0.00000000
        -23.07588517        0.00000000        0.00000000        0.00000000
        -23.00718116        0.00000000        0.00000000        0.00000000
        -22.93847715        0.00000000        0.00000000        0.00000000
        -22.86977314        0.00000000        0.00000000        0.00000000
        -22.80106912        0.00000000        0.00000000        0.00000000
        -22.73236511        0.00000000        0.00000000        0.00000000
        -22.66366110        0.00000000        0.00000000        0.00000000
        -22.59495709        0.00000000        0.00000000        0.00000000
        -22.52625307        0.00000000        0.00000000        0.00000000
        -22.45754906        0.00000000        0.00000000        0.00000000
        -22.38884505        0.00000000        0.00000000        0.00000000
        -22.32014104        0.00000000        0.00000000        0.00000000
        -22.25143703        0.00000000        0.00000000        0.00000000
        -22.18273301        0.00000000        0.00000000        0.00000000
        -22.11402900        0.00000000        0.00000000        0.00000000
        -22.04532499        0.00000000        0.00000000        0.00000000
        -21.97662098        0.00000000        0.00000000        0.00000000
        -21.90791696        0.00000000        0.00000000        0.00000000
        -21.83921295        0.00000000        0.00000000        0.00000000
        -21.77050894        0.00000000        0.00000000        0.00000000
        -21.70180493        0.00000000        0.00000000        0.00000000
        -21.63310091        0.00000000        0.00000000        0.00000000
        -21.56439690        0.00000000        0.00000000        0.00000000
        -21.49569289        0.00000000        0.00000000        0.00000000
        -21.42698888        0.00000000        0.00000000        0.00000000
        -21.35828486        0.00000000        0.00000000        0.00000000
        -21.28958085        0.00000000        0.00000000        0.00000000
        -21.22087684        0.00000000        0.00000000        0.00000000
        -21.15217283        0.00000000        0.00000000        0.00000000
        -21.08346882        0.00000000        0.00000000        0.00000000
        -21.01476480        0.00000000        0.00000000        0.00000000
        -20.94606079        0.00000000        0.00000000        0.00000000
        -20.87735678        0.00000000        0.00000000        0.00000000
        -20.80865277        0.00000000        0.00000000        0.00000000
        -20.73994875        0.00000000        0.00000000        0.00000001
        -20.67124474        0.00000061        0.00000059        0.00000120
        -20.60254073        0.00001501        0.00001471        0.00002972
        -20.53383672        0.00015459        0.00015246        0.00030706
        -20.46513270        0.00068145        0.00067623        0.00135768
        -20.39642869        0.00150220        0.00149799        0.00300019
        -20.32772468        0.00239738        0.00239458        0.00479196
        -20.25902067        0.00335244        0.00334655        0.00669898
        -20.19031666        0.00393827        0.00392720        0.00786547
        -20.12161264        0.00430970        0.00430038        0.00861008
        -20.05290863        0.00403202        0.00403143        0.00806344
        -19.98420462        0.00334355        0.00334264        0.00668620
        -19.91550061        0.00275106        0.00274733        0.00549838
        -19.84679659        0.00244322        0.00243761        0.00488083
        -19.77809258        0.00235546        0.00234751        0.00470297
        -19.70938857        0.00222687        0.00222018        0.00444706
        -19.64068456        0.00203795        0.00203422        0.00407217
        -19.57198054        0.00195126        0.00194798        0.00389923
        -19.50327653        0.00197357        0.00196962        0.00394320
        -19.43457252        0.00196031        0.00195632        0.00391663
        -19.36586851        0.00187190        0.00186806        0.00373995
        -19.29716449        0.00177096        0.00176719        0.00353815
        -19.22846048        0.00171125        0.00170710        0.00341835
        -19.15975647        0.00174010        0.00173648        0.00347658
        -19.09105246        0.00176090        0.00175809        0.00351899
        -19.02234845        0.00171138        0.00170848        0.00341987
        -18.95364443        0.00165806        0.00165512        0.00331318
        -18.88494042        0.00166447        0.00166131        0.00332579
        -18.81623641        0.00169613        0.00169250        0.00338863
        -18.74753240        0.00167270        0.00166919        0.00334189
        -18.67882838        0.00160621        0.00160290        0.00320911
        -18.61012437        0.00159173        0.00158773        0.00317945
        -18.54142036        0.00162572        0.00162059        0.00324630
        -18.47271635        0.00161971        0.00161501        0.00323472
        -18.40401233        0.00176596        0.00176094        0.00352690
        -18.33530832        0.00214936        0.00214323        0.00429258
        -18.26660431        0.00227288        0.00226593        0.00453881
        -18.19790030        0.00234271        0.00233320        0.00467591
        -18.12919629        0.00230317        0.00229598        0.00459916
        -18.06049227        0.00181081        0.00180388        0.00361469
        -17.99178826        0.00132452        0.00132061        0.00264513
        -17.92308425        0.00070658        0.00071045        0.00141703
        -17.85438024        0.00019519        0.00019821        0.00039340
        -17.78567622        0.00002663        0.00002717        0.00005380
        -17.71697221        0.00000190        0.00000194        0.00000384
        -17.64826820        0.00000007        0.00000007        0.00000013
        -17.57956419        0.00000000        0.00000000        0.00000000
        -17.51086017        0.00000000        0.00000000        0.00000000
        -17.44215616        0.00000000        0.00000000        0.00000000
        -17.37345215        0.00000000        0.00000000        0.00000000
        -17.30474814        0.00000012        0.00000012        0.00000023
        -17.23604412        0.00000524        0.00000520        0.00001045
        -17.16734011        0.00009304        0.00009236        0.00018541
        -17.09863610        0.00082940        0.00082435        0.00165374
        -17.02993209        0.00358512        0.00357079        0.00715590
        -16.96122808        0.00779222        0.00777709        0.01556931
        -16.89252406        0.01033978        0.01033178        0.02067156
        -16.82382005        0.01133006        0.01132344        0.02265350
        -16.75511604        0.01066862        0.01066194        0.02133056
        -16.68641203        0.00803440        0.00802888        0.01606329
        -16.61770801        0.00575286        0.00574916        0.01150201
        -16.54900400        0.00482415        0.00481810        0.00964225
        -16.48029999        0.00513112        0.00512272        0.01025384
        -16.41159598        0.00576394        0.00575594        0.01151988
        -16.34289196        0.00640408        0.00639387        0.01279795
        -16.27418795        0.00734474        0.00733269        0.01467743
        -16.20548394        0.00817013        0.00816069        0.01633082
        -16.13677993        0.00798701        0.00797793        0.01596494
        -16.06807592        0.00812638        0.00811225        0.01623863
        -15.99937190        0.00894156        0.00892705        0.01786861
        -15.93066789        0.00950820        0.00949538        0.01900358
        -15.86196388        0.01037258        0.01035832        0.02073091
        -15.79325987        0.01160431        0.01158784        0.02319214
        -15.72455585        0.01239717        0.01238130        0.02477847
        -15.65585184        0.01244140        0.01242749        0.02486889
        -15.58714783        0.01235773        0.01234532        0.02470305
        -15.51844382        0.01249190        0.01247826        0.02497016
        -15.44973980        0.01306148        0.01304468        0.02610616
        -15.38103579        0.01425769        0.01423517        0.02849287
        -15.31233178        0.01591836        0.01589506        0.03181342
        -15.24362777        0.01798115        0.01796337        0.03594452
        -15.17492375        0.02098990        0.02097251        0.04196241
        -15.10621974        0.02255468        0.02253458        0.04508926
        -15.03751573        0.02191106        0.02187802        0.04378908
        -14.96881172        0.02075581        0.02070739        0.04146319
        -14.90010771        0.01988702        0.01984372        0.03973074
        -14.83140369        0.01886041        0.01883894        0.03769935
        -14.76269968        0.01588477        0.01587067        0.03175544
        -14.69399567        0.01061542        0.01060221        0.02121763
        -14.62529166        0.00573502        0.00573467        0.01146969
        -14.55658764        0.00285066        0.00285901        0.00570967
        -14.48788363        0.00121419        0.00122205        0.00243624
        -14.41917962        0.00034353        0.00034667        0.00069019
        -14.35047561        0.00005782        0.00005835        0.00011617
        -14.28177159        0.00003013        0.00002946        0.00005959
        -14.21306758        0.00050512        0.00049424        0.00099936
        -14.14436357        0.00408609        0.00402638        0.00811247
        -14.07565956        0.01433799        0.01422156        0.02855955
        -14.00695555        0.02934646        0.02923291        0.05857936
        -13.93825153        0.05096953        0.05084997        0.10181951
        -13.86954752        0.06971492        0.06963728        0.13935220
        -13.80084351        0.07180154        0.07173697        0.14353851
        -13.73213950        0.06834979        0.06824029        0.13659008
        -13.66343548        0.06815001        0.06798986        0.13613987
        -13.59473147        0.07594955        0.07572183        0.15167139
        -13.52602746        0.08376163        0.08358294        0.16734458
        -13.45732345        0.07991201        0.07980761        0.15971963
        -13.38861943        0.06905377        0.06895044        0.13800421
        -13.31991542        0.05768865        0.05756147        0.11525012
        -13.25121141        0.05023593        0.05013062        0.10036655
        -13.18250740        0.04798560        0.04789821        0.09588381
        -13.11380338        0.04780505        0.04772540        0.09553045
        -13.04509937        0.04817989        0.04810611        0.09628601
        -12.97639536        0.05029054        0.05020871        0.10049925
        -12.90769135        0.05256607        0.05248286        0.10504893
        -12.83898734        0.05059724        0.05051449        0.10111173
        -12.77028332        0.04600156        0.04590442        0.09190598
        -12.70157931        0.04245775        0.04235645        0.08481420
        -12.63287530        0.04002407        0.03993598        0.07996006
        -12.56417129        0.03340948        0.03337194        0.06678142
        -12.49546727        0.02344197        0.02344234        0.04688431
        -12.42676326        0.01502565        0.01502313        0.03004878
        -12.35805925        0.00902534        0.00901669        0.01804203
        -12.28935524        0.00525666        0.00524722        0.01050388
        -12.22065122        0.00360211        0.00359061        0.00719272
        -12.15194721        0.00581660        0.00578535        0.01160195
        -12.08324320        0.01493771        0.01482931        0.02976702
        -12.01453919        0.02779976        0.02760831        0.05540808
        -11.94583517        0.03328966        0.03315107        0.06644072
        -11.87713116        0.03348369        0.03334246        0.06682615
        -11.80842715        0.04619995        0.04603371        0.09223366
        -11.73972314        0.06814487        0.06800753        0.13615240
        -11.67101913        0.08860215        0.08832411        0.17692626
        -11.60231511        0.10259784        0.10214694        0.20474478
        -11.53361110        0.09535125        0.09491381        0.19026506
        -11.46490709        0.07804861        0.07762415        0.15567277
        -11.39620308        0.07300270        0.07254426        0.14554695
        -11.32749906        0.07562915        0.07507367        0.15070282
        -11.25879505        0.07826921        0.07766201        0.15593121
        -11.19009104        0.07723008        0.07684659        0.15407668
        -11.12138703        0.06739551        0.06727098        0.13466650
        -11.05268301        0.05737871        0.05722756        0.11460627
        -10.98397900        0.05284028        0.05262018        0.10546046
        -10.91527499        0.05055572        0.05042863        0.10098436
        -10.84657098        0.06125048        0.06119474        0.12244523
        -10.77786697        0.08570549        0.08552449        0.17122998
        -10.70916295        0.09947653        0.09913530        0.19861183
        -10.64045894        0.09486880        0.09456745        0.18943626
        -10.57175493        0.09339438        0.09309175        0.18648614
        -10.50305092        0.10481539        0.10430415        0.20911954
        -10.43434690        0.11625654        0.11546997        0.23172651
        -10.36564289        0.12081891        0.11966232        0.24048123
        -10.29693888        0.13558402        0.13431161        0.26989562
        -10.22823487        0.16352285        0.16263496        0.32615782
        -10.15953085        0.19126966        0.19064549        0.38191515
        -10.09082684        0.21059706        0.20980459        0.42040166
        -10.02212283        0.21120289        0.21024236        0.42144525
         -9.95341882        0.22281819        0.22147730        0.44429549
         -9.88471480        0.26816036        0.26660738        0.53476774
         -9.81601079        0.30570615        0.30455822        0.61026437
         -9.74730678        0.31837168        0.31725534        0.63562702
         -9.67860277        0.30911404        0.30777679        0.61689083
         -9.60989876        0.30549172        0.30391453        0.60940625
         -9.54119474        0.32980832        0.32804492        0.65785325
         -9.47249073        0.37368084        0.37165146        0.74533230
         -9.40378672        0.41857798        0.41595867        0.83453665
         -9.33508271        0.44165711        0.43879286        0.88044998
         -9.26637869        0.46442496        0.46120951        0.92563447
         -9.19767468        0.50316221        0.49970020        1.00286242
         -9.12897067        0.50259833        0.50001041        1.00260873
         -9.06026666        0.49214204        0.48962224        0.98176428
         -8.99156264        0.54217767        0.53867287        1.08085054
         -8.92285863        0.59643104        0.59242499        1.18885603
         -8.85415462        0.60728666        0.60323042        1.21051708
         -8.78545061        0.60153748        0.59759122        1.19912870
         -8.71674660        0.59459372        0.59115986        1.18575359
         -8.64804258        0.56374579        0.56070748        1.12445326
         -8.57933857        0.49930130        0.49618372        0.99548503
         -8.51063456        0.42702810        0.42317283        0.85020093
         -8.44193055        0.36801550        0.36248211        0.73049762
         -8.37322653        0.42379997        0.41237111        0.83617108
         -8.30452252        0.68669912        0.66926716        1.35596628
         -8.23581851        0.85439602        0.84343260        1.69782862
         -8.16711450        0.76633362        0.76229562        1.52862924
         -8.09841048        0.71632738        0.70715351        1.42348089
         -8.02970647        0.72648305        0.70148708        1.42797013
         -7.96100246        0.87138764        0.81045036        1.68183800
         -7.89229845        1.29756969        1.15197967        2.44954935
         -7.82359443        1.87407877        1.64902449        3.52310326
         -7.75489042        2.53556134        2.39067050        4.92623184
         -7.68618641        4.56610974        4.55586232        9.12197207
         -7.61748240        9.91058120        9.90092401       19.81150521
         -7.54877839       17.09465824       16.81932164       33.91397988
         -7.48007437       25.03610364       23.82996377       48.86606740
         -7.41137036       32.04321577       29.15582801       61.19904377
         -7.34266635       38.05061226       34.47691405       72.52752631
         -7.27396234       41.05779202       40.66427977       81.72207179
         -7.20525832       30.53113795       34.68987351       65.22101146
         -7.13655431       16.45082366       19.51853297       35.96935664
         -7.06785030       16.98576587       16.34264123       33.32840710
         -6.99914629       26.58670443       25.42427805       52.01098249
         -6.93044227       32.26551274       32.60291212       64.86842486
         -6.86173826       37.43150692       37.46915130       74.90065822
         -6.79303425       40.68706292       40.27576565       80.96282858
         -6.72433024       45.42568330       42.98881580       88.41449910
         -6.65562623       54.45913637       51.53708053      105.99621691
         -6.58692221       56.76819378       57.73573139      114.50392517
         -6.51821820       56.01002890       58.70212761      114.71215651
         -6.44951419       55.83379664       57.02478612      112.85858277
         -6.38081018       60.45394780       59.55739690      120.01134469
         -6.31210616       68.94941943       67.42470912      136.37412855
         -6.24340215       71.74066531       71.16489363      142.90555893
         -6.17469814       68.06800232       68.40189380      136.46989612
         -6.10599413       68.66479759       67.93660402      136.60140160
         -6.03729011       70.20244475       70.24497672      140.44742147
         -5.96858610       62.73452961       64.03916085      126.77369046
         -5.89988209       54.45872943       54.61805788      109.07678730
         -5.83117808       47.16622009       46.86836907       94.03458916
         -5.76247406       46.08608030       45.96874214       92.05482243
         -5.69377005       59.81592284       58.45423675      118.27015959
         -5.62506604       74.79067293       72.77790651      147.56857944
         -5.55636203       74.09394184       72.64429235      146.73823419
         -5.48765802       64.78863765       63.87679962      128.66543726
         -5.41895400       71.21218518       71.12108968      142.33327486
         -5.35024999       91.82655039       92.06896324      183.89551363
         -5.28154598      102.71401060      101.91988649      204.63389709
         -5.21284197       97.09262250       96.91713821      194.00976071
         -5.14413795       85.34038144       87.22451811      172.56489955
         -5.07543394       71.59267865       73.57158021      145.16425885
         -5.00672993       55.79676593       57.79704723      113.59381317
         -4.93802592       34.64549521       37.85637329       72.50186850
         -4.86932190       15.52053880       18.53643989       34.05697869
         -4.80061789        8.62589739        9.62133647       18.24723386
         -4.73191388        9.15925306        8.68082079       17.84007385