#            ENERGY              s1              s2              total
        -32.07611079        0.00000461        0.00000452        0.00000913
        -32.00740678        0.00017761        0.00017484        0.00035246
        -31.93870276        0.00273508        0.00270463        0.00543971
        -31.86999875        0.01762253        0.01750046        0.03512299
        -31.80129474        0.05903533        0.05880635        0.11784168
        -31.73259073        0.13994020        0.13961421        0.27955440
        -31.66388671        0.21813242        0.21803929        0.43617170
        -31.59518270        0.19090420        0.19118719        0.38209139
        -31.52647869        0.14463450        0.14463473        0.28926923
        -31.45777468        0.17030327        0.16984427        0.34014753
        -31.38907067        0.20574988        0.20532479        0.41107467
        -31.32036665        0.20064945        0.20061404        0.40126349
        -31.25166264        0.18182748        0.18193439        0.36376187
        -31.18295863        0.15999965        0.16017944        0.32017909
        -31.11425462        0.11815583        0.11846393        0.23661976
        -31.04555060        0.06700160        0.06718892        0.13419052
        -30.97684659        0.03614732        0.03615164        0.07229897
        -30.90814258        0.02732941        0.02734373        0.05467314
        -30.83943857        0.02057989        0.02065413        0.04123403
        -30.77073455        0.00882696        0.00886890        0.01769587
        -30.70203054        0.00178309        0.00179097        0.00357406
        -30.63332653        0.00016757        0.00016821        0.00033578
        -30.56462252        0.00000823        0.00000826        0.00001649
        -30.49591851        0.00000024        0.00000024        0.00000048
        -30.42721449        0.00000001        0.00000001        0.00000001
        -30.35851048        0.00000000        0.00000000        0.00000000
        -30.28980647        0.00000000        0.00000000        0.00000000
        -30.22110246        0.00002843        0.00002790        0.00005633
        -30.15239844        0.00081928        0.00080737        0.00162664
        -30.08369443        0.00971714        0.00961577        0.01933291
        -30.01499042        0.04962404        0.04930686        0.09893090
        -29.94628641        0.11714612        0.11685832        0.23400444
        -29.87758239        0.14810241        0.14824408        0.29634649
        -29.80887838        0.12955355        0.12986684        0.25942038
        -29.74017437        0.10088055        0.10099379        0.20187434
        -29.67147036        0.09392105        0.09370583        0.18762688
        -29.60276634        0.12984804        0.12923317        0.25908122
        -29.53406233        0.17993695        0.17946298        0.35939993
        -29.46535832        0.19496836        0.19517739        0.39014576
        -29.39665431        0.15492217        0.15539420        0.31031636
        -29.32795030        0.08300342        0.08325178        0.16625520
        -29.25924628        0.04103026        0.04105907        0.08208933
        -29.19054227        0.03064353        0.03073217        0.06137570
        -29.12183826        0.02010468        0.02021982        0.04032450
        -29.05313425        0.00749562        0.00754816        0.01504378
        -28.98443023        0.00155378        0.00156740        0.00312118
        -28.91572622        0.00020554        0.00020776        0.00041331
        -28.84702221        0.00001835        0.00001856        0.00003691
        -28.77831820        0.00000094        0.00000095        0.00000189
        -28.70961418        0.00000002        0.00000002        0.00000004
        -28.64091017       -0.00000000       -0.00000000       -0.00000000
        -28.57220616        0.00000000        0.00000000        0.00000000
        -28.50350215        0.00000000        0.00000000        0.00000000
        -28.43479814        0.00000000        0.00000000        0.00000000
        -28.36609412        0.00000000        0.00000000        0.00000000
        -28.29739011        0.00000000        0.00000000        0.00000000
        -28.22868610        0.00000000        0.00000000        0.00000000
        -28.15998209        0.00000000        0.00000000        0.00000000
        -28.09127807        0.00000000        0.00000000        0.00000000
        -28.02257406        0.00000000        0.00000000        0.00000000
        -27.95387005        0.00000000        0.00000000        0.00000000
        -27.88516604        0.00000000        0.00000000        0.00000000
        -27.81646202        0.00000000        0.00000000        0.00000000
        -27.74775801        0.00000000        0.00000000        0.00000000
        -27.67905400        0.00000000        0.00000000        0.00000000
        -27.61034999        0.00000000        0.00000000        0.00000000
        -27.54164597        0.00000000        0.00000000        0.00000000
        -27.47294196        0.00000000        0.00000000        0.00000000
        -27.40423795        0.00000000        0.00000000        0.00000000
        -27.33553394        0.00000000        0.00000000        0.00000000
        -27.26682993        0.00000000        0.00000000        0.00000000
        -27.19812591        0.00000000        0.00000000        0.00000000
        -27.12942190        0.00000000        0.00000000        0.00000000
        -27.06071789        0.00000000        0.00000000        0.00000000
        -26.99201388        0.00000000        0.00000000        0.00000000
        -26.92330986        0.00000000        0.00000000        0.00000000
        -26.85460585        0.00000000        0.00000000        0.00000000
        -26.78590184        0.00000000        0.00000000        0.00000000
        -26.71719783        0.00000000        0.00000000        0.00000000
        -26.64849381        0.00000000        0.00000000        0.00000000
        -26.57978980        0.00000000        0.00000000        0.00000000
        -26.51108579        0.00000000        0.00000000        0.00000000
        -26.44238178        0.00000000        0.00000000        0.00000000
        -26.37367777        0.00000000        0.00000000        0.00000000
        -26.30497375        0.00000000        0.00000000        0.00000000
        -26.23626974        0.00000000        0.00000000        0.00000000
        -26.16756573        0.00000000        0.00000000        0.00000000
        -26.09886172        0.00000000        0.00000000        0.00000000
        -26.03015770        0.00000000        0.00000000        0.00000000
        -25.96145369        0.00000000        0.00000000        0.00000000
        -25.89274968        0.00000000        0.00000000        0.00000000
        -25.82404567        0.00000000        0.00000000        0.00000000
        -25.75534165        0.00000000        0.00000000        0.00000000
        -25.68663764        0.00000000        0.00000000        0.00000000
        -25.61793363        0.00000000        0.00000000        0.00000000
        -25.54922962        0.00000000        0.00000000        0.00000000
        -25.48052560        0.00000000        0.00000000        0.00000000
        -25.41182159        0.00000000        0.00000000        0.00000000
        -25.34311758        0.00000000        0.00000000        0.00000000
        -25.27441357        0.00000000        0.00000000        0.00000000
        -25.20570956        0.00000000        0.00000000        0.00000000
        -25.13700554        0.00000000        0.00000000        0.00000000
        -25.06830153        0.00000000        0.00000000        0.00000000
        -24.99959752        0.00000000        0.00000000        0.00000000
        -24.93089351        0.00000000        0.00000000        0.00000000
        -24.86218949        0.00000000        0.00000000        0.00000000
        -24.79348548        0.00000000        0.00000000        0.00000000
        -24.72478147        0.00000000        0.00000000        0.00000000
        -24.65607746        0.00000000        0.00000000        0.00000000
        -24.58737344        0.00000000        0.00000000        0.00000000
        -24.51866943        0.00000000        0.00000000        0.00000000
        -24.44996542        0.00000000        0.00000000        0.00000000
        -24.38126141        0.00000000        0.00000000        0.00000000
        -24.31255740        0.00000000        0.00000000        0.00000000
        -24.24385338        0.00000000        0.00000000        0.00000000
        -24.17514937        0.00000000        0.00000000        0.00000000
        -24.10644536        0.00000000        0.00000000        0.00000000
        -24.03774135        0.00000000        0.00000000        0.00000000
        -23.96903733        0.00000000        0.00000000        0.00000000
        -23.90033332        0.00000000        0.00000000        0.00000000
        -23.83162931        0.00000000        0.00000000        0.00000000
        -23.76292530        0.00000000        0.00000000        0.00000000
        -23.69422128        0.00000000        0.00000000        0.00000000
        -23.62551727        0.00000000        0.00000000        0.00000000
        -23.55681326        0.00000000        0.00000000        0.00000000
        -23.48810925        0.00000000        0.00000000        0.00000000
        -23.41940523        0.00000000        0.00000000        0.00000000
        -23.35070122        0.00000000        0.00000000        0.00000000
        -23.28199721        0.00000000        0.00000000        0.00000000
        -23.21329320        0.00000000        0.00000000        0.00000000
        -23.14458919        0.00000000        0.00000000        0.00000000
        -23.07588517        0.00000000        0.00000000        0.00000000
        -23.00718116        0.00000000        0.00000000        0.00000000
        -22.93847715        0.00000000        0.00000000        0.00000000
        -22.86977314        0.00000000        0.00000000        0.00000000
        -22.80106912        0.00000000        0.00000000        0.00000000
        -22.73236511        0.00000000        0.00000000        0.00000000
        -22.66366110        0.00000000        0.00000000        0.00000000
        -22.59495709        0.00000000        0.00000000        0.00000000
        -22.52625307        0.00000000        0.00000000        0.00000000
        -22.45754906        0.00000000        0.00000000        0.00000000
        -22.38884505        0.00000000        0.00000000        0.00000000
        -22.32014104        0.00000000        0.00000000        0.00000000
        -22.25143703        0.00000000        0.00000000        0.00000000
        -22.18273301        0.00000000        0.00000000        0.00000000
        -22.11402900        0.00000000        0.00000000        0.00000000
        -22.04532499        0.00000000        0.00000000        0.00000000
        -21.97662098        0.00000000        0.00000000        0.00000000
        -21.90791696        0.00000000        0.00000000        0.00000000
        -21.83921295        0.00000000        0.00000000        0.00000000
        -21.77050894        0.00000000        0.00000000        0.00000000
        -21.70180493        0.00000000        0.00000000        0.00000000
        -21.63310091        0.00000000        0.00000000        0.00000000
        -21.56439690        0.00000000        0.00000000        0.00000000
        -21.49569289        0.00000000        0.00000000        0.00000000
        -21.42698888        0.00000000        0.00000000        0.00000000
        -21.35828486        0.00000000        0.00000000        0.00000000
        -21.28958085        0.00000000        0.00000000        0.00000000
        -21.22087684        0.00000000        0.00000000        0.00000000
        -21.15217283        0.00000000        0.00000000        0.00000000
        -21.08346882        0.00000000        0.00000000        0.00000000
        -21.01476480        0.00000000        0.00000000        0.00000000
        -20.94606079        0.00000000        0.00000000        0.00000000
        -20.87735678        0.00000000        0.00000000        0.00000000
        -20.80865277        0.00000000        0.00000000        0.00000000
        -20.73994875        0.00000003        0.00000003        0.00000006
        -20.67124474        0.00000668        0.00000651        0.00001318
        -20.60254073        0.00016129        0.00015807        0.00031936
        -20.53383672        0.00161444        0.00159232        0.00320676
        -20.46513270        0.00688030        0.00682919        0.01370949
        -20.39642869        0.01457692        0.01454278        0.02911971
        -20.32772468        0.02255013        0.02253380        0.04508393
        -20.25902067        0.03151446        0.03147279        0.06298725
        -20.19031666        0.03680444        0.03672870        0.07353314
        -20.12161264        0.03825532        0.03818358        0.07643890
        -20.05290863        0.03439597        0.03436723        0.06876320
        -19.98420462        0.02946468        0.02942585        0.05889053
        -19.91550061        0.02717697        0.02711507        0.05429204
        -19.84679659        0.02725007        0.02717206        0.05442214
        -19.77809258        0.02823924        0.02813145        0.05637069
        -19.70938857        0.02851413        0.02841508        0.05692920
        -19.64068456        0.02764640        0.02758538        0.05523178
        -19.57198054        0.02702141        0.02696778        0.05398919
        -19.50327653        0.02727492        0.02720895        0.05448387
        -19.43457252        0.02743186        0.02736047        0.05479233
        -19.36586851        0.02700995        0.02694436        0.05395432
        -19.29716449        0.02598176        0.02593299        0.05191475
        -19.22846048        0.02432075        0.02427875        0.04859950
        -19.15975647        0.02334404        0.02330805        0.04665209
        -19.09105246        0.02322603        0.02319561        0.04642164
        -19.02234845        0.02304548        0.02300780        0.04605329
        -18.95364443        0.02306283        0.02302111        0.04608394
        -18.88494042        0.02316342        0.02312270        0.04628611
        -18.81623641        0.02319523        0.02314985        0.04634508
        -18.74753240        0.02318600        0.02314201        0.04632801
        -18.67882838        0.02244163        0.02240057        0.04484220
        -18.61012437        0.02195189        0.02189645        0.04384834
        -18.54142036        0.02182418        0.02174786        0.04357204
        -18.47271635        0.02204130        0.02197668        0.04401798
        -18.40401233        0.02392583        0.02387392        0.04779976
        -18.33530832        0.02679243        0.02672842        0.05352086
        -18.26660431        0.02668140        0.02660036        0.05328176
        -18.19790030        0.02783357        0.02773102        0.05556459
        -18.12919629        0.02890383        0.02883719        0.05774102
        -18.06049227        0.02461116        0.02454140        0.04915256
        -17.99178826        0.01898676        0.01894899        0.03793575
        -17.92308425        0.01046716        0.01051657        0.02098373
        -17.85438024        0.00320853        0.00324425        0.00645278
        -17.78567622        0.00054124        0.00054750        0.00108874
        -17.71697221        0.00004913        0.00004951        0.00009864
        -17.64826820        0.00000207        0.00000208        0.00000415
        -17.57956419        0.00000004        0.00000004        0.00000007
        -17.51086017        0.00000000        0.00000000        0.00000000
        -17.44215616        0.00000000        0.00000000        0.00000000
        -17.37345215        0.00000000        0.00000000        0.00000000
        -17.30474814        0.00000134        0.00000134        0.00000268
        -17.23604412        0.00005110        0.00005081        0.00010190
        -17.16734011        0.00081716        0.00081215        0.00162930
        -17.09863610        0.00675545        0.00671887        0.01347433
        -17.02993209        0.02831510        0.02821023        0.05652533
        -16.96122808        0.06175633        0.06163579        0.12339212
        -16.89252406        0.08541260        0.08531534        0.17072794
        -16.82382005        0.10115668        0.10104104        0.20219772
        -16.75511604        0.10200549        0.10189467        0.20390016
        -16.68641203        0.08251437        0.08244537        0.16495974
        -16.61770801        0.06131295        0.06128465        0.12259760
        -16.54900400        0.05091691        0.05084508        0.10176199
        -16.48029999        0.05660498        0.05648233        0.11308730
        -16.41159598        0.06367796        0.06356983        0.12724778
        -16.34289196        0.06637423        0.06625103        0.13262527
        -16.27418795        0.07253362        0.07238973        0.14492335
        -16.20548394        0.07704760        0.07694270        0.15399029
        -16.13677993        0.07631607        0.07621225        0.15252832
        -16.06807592        0.08420092        0.08404266        0.16824358
        -15.99937190        0.09386112        0.09368416        0.18754528
        -15.93066789        0.09608693        0.09591332        0.19200025
        -15.86196388        0.09824351        0.09808070        0.19632421
        -15.79325987        0.10572591        0.10555743        0.21128333
        -15.72455585        0.11703476        0.11684966        0.23388442
        -15.65585184        0.12520544        0.12500034        0.25020578
        -15.58714783        0.13325671        0.13302459        0.26628130
        -15.51844382        0.14461636        0.14436629        0.28898265
        -15.44973980        0.16173040        0.16146260        0.32319300
        -15.38103579        0.18323436        0.18290426        0.36613862
        -15.31233178        0.20390642        0.20354228        0.40744870
        -15.24362777        0.22588016        0.22555673        0.45143689
        -15.17492375        0.25364190        0.25332105        0.50696295
        -15.10621974        0.26735081        0.26698341        0.53433421
        -15.03751573        0.26667113        0.26610859        0.53277972
        -14.96881172        0.27126831        0.27053203        0.54180034
        -14.90010771        0.27778188        0.27718522        0.55496710
        -14.83140369        0.26933667        0.26900793        0.53834460
        -14.76269968        0.22947358        0.22912915        0.45860274
        -14.69399567        0.16827146        0.16793442        0.33620588
        -14.62529166        0.10809670        0.10806916        0.21616586
        -14.55658764        0.06232872        0.06252058        0.12484929
        -14.48788363        0.02822933        0.02842315        0.05665248
        -14.41917962        0.00797525        0.00805368        0.01602894
        -14.35047561        0.00128010        0.00129359        0.00257369
        -14.28177159        0.00023923        0.00023657        0.00047579
        -14.21306758        0.00260711        0.00255031        0.00515743
        -14.14436357        0.02095453        0.02064263        0.04159716
        -14.07565956        0.07201779        0.07142658        0.14344437
        -14.00695555        0.14046075        0.13997093        0.28043168
        -13.93825153        0.24035834        0.23990386        0.48026221
        -13.86954752        0.34640166        0.34610972        0.69251139
        -13.80084351        0.38208538        0.38183904        0.76392442
        -13.73213950        0.37853935        0.37795676        0.75649611
        -13.66343548        0.39710423        0.39600738        0.79311161
        -13.59473147        0.48149362        0.47998168        0.96147530
        -13.52602746        0.56317117        0.56202653        1.12519770
        -13.45732345        0.55234662        0.55169671        1.10404332
        -13.38861943        0.47207877        0.47152169        0.94360046
        -13.31991542        0.38735921        0.38668763        0.77404684
        -13.25121141        0.34052077        0.33997834        0.68049910
        -13.18250740        0.33155466        0.33111125        0.66266591
        -13.11380338        0.33631816        0.33598340        0.67230156
        -13.04509937        0.34358036        0.34328727        0.68686763
        -12.97639536        0.36418404        0.36372434        0.72790838
        -12.90769135        0.38072598        0.38020395        0.76092993
        -12.83898734        0.36008611        0.35955109        0.71963719
        -12.77028332        0.31855168        0.31790458        0.63645626
        -12.70157931        0.28850471        0.28777907        0.57628378
        -12.63287530        0.27921642        0.27861481        0.55783123
        -12.56417129        0.24197893        0.24187672        0.48385565
        -12.49546727        0.17018112        0.17041076        0.34059188
        -12.42676326        0.11233721        0.11243229        0.22476950
        -12.35805925        0.07304657        0.07302554        0.14607211
        -12.28935524        0.04333372        0.04328530        0.08661901
        -12.22065122        0.02911984        0.02905102        0.05817086
        -12.15194721        0.03459786        0.03444682        0.06904468
        -12.08324320        0.07119635        0.07063309        0.14182944
        -12.01453919        0.13962419        0.13859431        0.27821850
        -11.94583517        0.18376563        0.18298912        0.36675475
        -11.87713116        0.20332896        0.20233011        0.40565907
        -11.80842715        0.28880798        0.28750976        0.57631774
        -11.73972314        0.40787355        0.40657296        0.81444651
        -11.67101913        0.50803442        0.50584992        1.01388434
        -11.60231511        0.57435617        0.57149611        1.14585228
        -11.53361110        0.53517303        0.53273324        1.06790627
        -11.46490709        0.44206327        0.43977375        0.88183702
        -11.39620308        0.41020979        0.40787428        0.81808407
        -11.32749906        0.42622244        0.42362938        0.84985183
        -11.25879505        0.44600674        0.44319363        0.88920037
        -11.19009104        0.43218486        0.43046639        0.86265125
        -11.12138703        0.36284697        0.36231062        0.72515759
        -11.05268301        0.30382823        0.30297750        0.60680573
        -10.98397900        0.27083045        0.26964970        0.54048015
        -10.91527499        0.22748028        0.22668767        0.45416795
        -10.84657098        0.24894723        0.24821576        0.49716299
        -10.77786697        0.36155546        0.36032486        0.72188033
        -10.70916295        0.44031605        0.43884619        0.87916224
        -10.64045894        0.42099452        0.41996695        0.84096148
        -10.57175493        0.41185693        0.41067224        0.82252917
        -10.50305092        0.48828361        0.48600763        0.97429123
        -10.43434690        0.57423572        0.57028708        1.14452279
        -10.36564289        0.60596779        0.59952809        1.20549588
        -10.29693888        0.65242613        0.64599804        1.29842416
        -10.22823487        0.73105675        0.72766507        1.45872182
        -10.15953085        0.80440207        0.80251511        1.60691717
        -10.09082684        0.82728211        0.82500462        1.65228674
        -10.02212283        0.77401500        0.77095706        1.54497206
         -9.95341882        0.77195109        0.76704287        1.53899396
         -9.88471480        0.91087879        0.90477240        1.81565118
         -9.81601079        1.06944797        1.06446034        2.13390831
         -9.74730678        1.14189491        1.13720843        2.27910334
         -9.67860277        1.09885199        1.09367885        2.19253084
         -9.60989876        1.07403007        1.06793663        2.14196671
         -9.54119474        1.14870375        1.14237194        2.29107569
         -9.47249073        1.24441862        1.23790802        2.48232664
         -9.40378672        1.30737115        1.29967753        2.60704869
         -9.33508271        1.31382898        1.30681612        2.62064511
         -9.26637869        1.30432431        1.29769115        2.60201546
         -9.19767468        1.33546265        1.32787607        2.66333872
         -9.12897067        1.29827236        1.29108543        2.58935779
         -9.06026666        1.24559774        1.23740228        2.48300002
         -8.99156264        1.32800513        1.31702271        2.64502784
         -8.92285863        1.46462674        1.45208186        2.91670860
         -8.85415462        1.52230554        1.51008560        3.03239114
         -8.78545061        1.48246371        1.47209212        2.95455583
         -8.71674660        1.40107653        1.39315733        2.79423386
         -8.64804258        1.29007511        1.28309463        2.57316974
         -8.57933857        1.13822559        1.13078180        2.26900739
         -8.51063456        0.97564357        0.96606593        1.94170950
         -8.44193055        0.96221868        0.94196665        1.90418533
         -8.37322653        1.74173286        1.68427084        3.42600370
         -8.30452252        3.57933211        3.49850952        7.07784163
         -8.23581851        4.30775486        4.27911343        8.58686828
         -8.16711450        3.13917612        3.14444941        6.28362553
         -8.09841048        2.17975993        2.15149557        4.33125550
         -8.02970647        1.86305232        1.76629662        3.62934893
         -7.96100246        2.08730672        1.85507922        3.94238594
         -7.89229845        3.12988542        2.58813467        5.71802008
         -7.82359443        4.60677699        3.83061626        8.43739325
         -7.75489042        5.65288594        5.30235049       10.95523643
         -7.68618641        7.66706942        7.94211614       15.60918555
         -7.61748240       13.73382772       14.15285524       27.88668296
         -7.54877839       22.10301057       22.09969353       44.20270411
         -7.48007437       31.35638431       30.05622915       61.41261347
         -7.41137036       39.81380548       36.39289604       76.20670152
         -7.34266635       47.00949462       42.79769001       89.80718463
         -7.27396234       49.87728942       49.47722358       99.35451300
         -7.20525832       36.52846849       41.49360424       78.02207273
         -7.13655431       19.26074016       22.95112327       42.21186343
         -7.06785030       19.01546933       18.39984053       37.41530986
         -6.99914629       29.59180278       28.32066509       57.91246787
         -6.93044227       36.61363475       36.94304718       73.55668192
         -6.86173826       42.96504164       42.94385257       85.90889422
         -6.79303425       45.75293039       45.34035856       91.09328895
         -6.72433024       49.57244446       47.04964027       96.62208473
         -6.65562623       58.64887381       55.51282503      114.16169884
         -6.58692221       60.51639276       61.51137500      122.02776775
         -6.51821820       59.02923164       61.95400160      120.98323323
         -6.44951419       58.29714458       59.69713221      117.99427678
         -6.38081018       62.73501043       61.85198757      124.58699800
         -6.31210616       71.50380542       69.83564479      141.33945021
         -6.24340215       74.43723971       73.78202722      148.21926693
         -6.17469814       70.30261681       70.72032934      141.02294616
         -6.10599413       70.52918784       69.83973223      140.36892007
         -6.03729011       72.00327794       72.04614890      144.04942684
         -5.96858610       64.43317773       65.73021707      130.16339481
         -5.89988209       56.34230805       56.41090162      112.75320968
         -5.83117808       49.40761453       49.02203030       98.42964483
         -5.76247406       48.81069826       48.67256094       97.48325920
         -5.69377005       63.18441610       61.82037345      125.00478955
         -5.62506604       78.34106261       76.33221807      154.67328068
         -5.55636203       77.02686226       75.58563218      152.61249445
         -5.48765802       66.86551411       65.94701932      132.81253342
         -5.41895400       73.15498790       73.06531688      146.22030478
         -5.35024999       94.16782492       94.43079601      188.59862093
         -5.28154598      105.20057289      104.39393328      209.59450617
         -5.21284197       99.29778203       99.11130351      198.40908554
         -5.14413795       87.17093926       89.10542470      176.27636396
         -5.07543394       73.05900835       75.10632831      148.16533666
         -5.00672993       56.92532736       58.97488750      115.90021486
         -4.93802592       35.57824666       38.83905314       74.41729980
         -4.86932190       17.24789057       20.27977123       37.52766180
         -4.80061789       12.70651319       13.51026742       26.21678060
         -4.73191388       15.86085683       14.52873896       30.38959579