Siesta Version:                                        siesta-3.1
Architecture  : x86_64-unknown-linux-gnu--Intel
Compiler flags: mpif90 -O3 -xSSSE3 -axSSE4.2,SSE4.1 -ip
PARALLEL version
NetCDF support

* Running on   64 nodes in parallel
>> Start of run:  10-MAY-2012  17:29:37

                           ***********************       
                           *  WELCOME TO SIESTA  *       
                           ***********************       

reinit: Reading from standard input
************************** Dump of input data file ****************************
SystemName      optical
SystemLabel     optical
NumberOfAtoms   32
NumberOfSpecies 1
MD.TypeOfRun    CG
MD.NumCGsteps   0
MD.ConstantVolume  .true.
SolutionMethod  diagon
XC.functional   GGA
XC.authors      PBE
PAO.BasisSize   DZP
DM.NumberPulay  7
DM.MixingWeight 0.1
DirectPhi       .true.
SaveMemory      .true.
MeshCutoff      500 Ry
MaxSCFiterations 200
UseSaveData     .true.
WriteMullikenPop 1
OpticalCalculation      .true.
%block Optical.Mesh
 1 1 1
%endblock Optical.Mesh
Optical.PolarizationType  polarized
%block Optical.Vector
 0.0 0.0 1.0
%endblock Optical.Vector
Optical.Broaden         0.05 eV
Optical.EnergyMinimum   0.001 eV
Optical.EnergyMaximum   100.0 eV
%block ChemicalSpeciesLabel
 1  47   Ag
%endblock ChemicalSpeciesLabel
LatticeConstant 1.0 Ang
%block LatticeParameters
  22.534   24.472   23.649   90.0 90.0 90.0
%endblock LatticeParameters
AtomicCoordinatesFormat Ang
%block AtomicCoordinatesAndAtomicSpecies < struct.coor
%endblock AtomicCoordinatesAndAtomicSpecies
************************** End of input data file *****************************

reinit: -----------------------------------------------------------------------
reinit: System Name: optical
reinit: -----------------------------------------------------------------------
reinit: System Label: optical                                                     
reinit: -----------------------------------------------------------------------

initatom: Reading input for the pseudopotentials and atomic orbitals ----------
 Species number:            1  Label: Ag Atomic number:          47
Ground state valence configuration:   5s01  4d10
Reading pseudopotential information in formatted form from Ag.psf

Valence configuration for pseudopotential generation:
5s( 1.00) rc: 2.52
5p( 0.00) rc: 2.72
4d(10.00) rc: 2.52
4f( 0.00) rc: 2.52
For Ag, standard SIESTA heuristics set lmxkb to 3
 (one more than the basis l, including polarization orbitals).
Use PS.lmax or PS.KBprojectors blocks to override.

<basis_specs>
===============================================================================
Ag                   Z=  47    Mass=  107.87        Charge= 0.17977+309
Lmxo=2 Lmxkb= 3    BasisType=split      Semic=F
L=0  Nsemic=0  Cnfigmx=5
          n=1  nzeta=2  polorb=1
            splnorm:   0.15000    
               vcte:    0.0000    
               rinn:    0.0000    
                rcs:    0.0000      0.0000    
            lambdas:    1.0000      1.0000    
L=1  Nsemic=0  Cnfigmx=5
L=2  Nsemic=0  Cnfigmx=4
          n=1  nzeta=2  polorb=0
            splnorm:   0.15000    
               vcte:    0.0000    
               rinn:    0.0000    
                rcs:    0.0000      0.0000    
            lambdas:    1.0000      1.0000    
-------------------------------------------------------------------------------
L=0  Nkbl=1  erefs: 0.17977+309
L=1  Nkbl=1  erefs: 0.17977+309
L=2  Nkbl=1  erefs: 0.17977+309
L=3  Nkbl=1  erefs: 0.17977+309
===============================================================================
</basis_specs>

atom: Called for Ag                    (Z =  47)

read_vps: Pseudopotential generation method:
read_vps: ATM 3.2.2 Troullier-Martins                       
Total valence charge:   11.00000

xc_check: Exchange-correlation functional:
xc_check: GGA Perdew, Burke & Ernzerhof 1996
V l=0 = -2*Zval/r beyond r=  2.4592
V l=1 = -2*Zval/r beyond r=  2.6507
V l=2 = -2*Zval/r beyond r=  2.4592
V l=3 = -2*Zval/r beyond r=  2.4592
All V_l potentials equal beyond r=  2.6507
This should be close to max(r_c) in ps generation
All pots = -2*Zval/r beyond r=  2.6507

VLOCAL1: 99.0% of the norm of Vloc inside      6.178 Ry
VLOCAL1: 99.9% of the norm of Vloc inside     14.079 Ry
atom: Maximum radius for 4*pi*r*r*local-pseudopot. charge    3.19739
atom: Maximum radius for r*vlocal+2*Zval:    2.82168
GHOST: No ghost state for L =  0
GHOST: No ghost state for L =  1
GHOST: No ghost state for L =  2
GHOST: No ghost state for L =  3

KBgen: Kleinman-Bylander projectors: 
   l= 0   rc=  2.966357   el= -0.323666   Ekb=  3.565490   kbcos=  0.247453
   l= 1   rc=  3.003670   el= -0.054265   Ekb=  1.619308   kbcos=  0.223076
   l= 2   rc=  2.786631   el= -0.547066   Ekb= -7.840816   kbcos= -0.714112
   l= 3   rc=  3.079709   el=  0.002953   Ekb= -2.732950   kbcos= -0.012571

KBgen: Total number of  Kleinman-Bylander projectors:   16
atom: -------------------------------------------------------------------------

atom: SANKEY-TYPE ORBITALS:
atom: Selected multiple-zeta basis: split     

SPLIT: Orbitals with angular momentum L= 0

SPLIT: Basis orbitals for state 5s

SPLIT: PAO cut-off radius determined from an
SPLIT: energy shift=  0.020000 Ry

   izeta = 1
                 lambda =    1.000000
                     rc =    6.684855
                 energy =   -0.305483
                kinetic =    0.327133
    potential(screened) =   -0.632616
       potential(ionic) =   -8.088030

   izeta = 2
                 rmatch =    6.279837
              splitnorm =    0.150000
                 energy =   -0.253539
                kinetic =    0.499634
    potential(screened) =   -0.753173
       potential(ionic) =   -8.691029

SPLIT: Orbitals with angular momentum L= 2

SPLIT: Basis orbitals for state 4d

SPLIT: PAO cut-off radius determined from an
SPLIT: energy shift=  0.020000 Ry

   izeta = 1
                 lambda =    1.000000
                     rc =    3.954440
                 energy =   -0.527442
                kinetic =    6.210364
    potential(screened) =   -6.737807
       potential(ionic) =  -18.733043

   izeta = 2
                 rmatch =    2.490121
              splitnorm =    0.150000
                 energy =   -0.148928
                kinetic =    8.576261
    potential(screened) =   -8.725189
       potential(ionic) =  -21.658221

POLgen: Perturbative polarization orbital with L=  1

POLgen: Polarization orbital for state 5s

   izeta = 1
                     rc =    6.684855
                 energy =   -0.001728
                kinetic =    0.597115
    potential(screened) =   -0.598843
       potential(ionic) =   -7.554613
atom: Total number of Sankey-type orbitals: 15

atm_pop: Valence configuration (for local Pseudopot. screening):
 5s( 1.00)                                                            
 5p( 0.00)                                                            
 4d(10.00)                                                            
Vna: chval, zval:   11.00000  11.00000

Vna:  Cut-off radius for the neutral-atom potential:   6.684855

atom: _________________________________________________________________________

prinput: Basis input ----------------------------------------------------------

PAO.BasisType split     

%block ChemicalSpeciesLabel
    1   47 Ag                      # Species index, atomic number, species label
%endblock ChemicalSpeciesLabel

%block PAO.Basis                 # Define Basis set
Ag                    2                    # Species label, number of l-shells
 n=5   0   2 P   1                   # n, l, Nzeta, Polarization, NzetaPol
   6.685      6.280   
   1.000      1.000   
 n=4   2   2                         # n, l, Nzeta 
   3.954      2.490   
   1.000      1.000   
%endblock PAO.Basis

prinput: ----------------------------------------------------------------------

Dumping basis to NetCDF file Ag.ion.nc
coor:   Atomic-coordinates input format  =     Cartesian coordinates
coor:                                          (in Angstroms)

siesta: WARNING: XV file not found

siesta: Atomic coordinates (Bohr) and species
siesta:     18.97286  27.32545   8.82502  1        1
siesta:     24.43228  27.32545   8.82502  1        2
siesta:     13.51344  27.32545   8.82502  1        3
siesta:     21.70351  32.05355   8.82502  1        4
siesta:     21.70351  22.59735   8.82502  1        5
siesta:     16.24220  32.05355   8.82502  1        6
siesta:     16.24220  22.59735   8.82502  1        7
siesta:     18.97286  30.47752  13.28289  1        8
siesta:     18.97286  21.02132  13.28289  1        9
siesta:     21.70351  25.74942  13.28289  1       10
siesta:     16.24220  25.74942  13.28289  1       11
siesta:     24.43228  30.47752  13.28289  1       12
siesta:     13.51344  30.47752  13.28289  1       13
siesta:     21.70351  23.23230  24.35480  1       14
siesta:     16.24220  23.23230  24.35480  1       15
siesta:     18.97286  18.50421  24.35480  1       16
siesta:     18.97286  27.96040  24.35480  1       17
siesta:     13.51344  18.50421  24.35480  1       18
siesta:     24.43228  18.50421  24.35480  1       19
siesta:     24.43228  21.65627  28.81267  1       20
siesta:     13.51344  21.65627  28.81267  1       21
siesta:     21.70351  26.38437  28.81267  1       22
siesta:     21.70351  16.92817  28.81267  1       23
siesta:     16.24220  26.38437  28.81267  1       24
siesta:     16.24220  16.92817  28.81267  1       25
siesta:     18.97286  21.65627  28.81267  1       26
siesta:     18.97286  24.80833  33.27053  1       27
siesta:     18.97286  15.35214  33.27053  1       28
siesta:     21.70351  20.08024  33.27053  1       29
siesta:     16.24220  20.08024  33.27053  1       30
siesta:     24.43228  24.80833  33.27053  1       31
siesta:     13.51344  24.80833  33.27053  1       32

siesta: System type = molecule  

initatomlists: Number of atoms, orbitals, and projectors:     32   480   512

siesta: ******************** Simulation parameters ****************************
siesta:
siesta: The following are some of the parameters of the simulation.
siesta: A complete list of the parameters used, including default values,
siesta: can be found in file out.fdf
siesta:
redata: Non-Collinear-spin run           =     F
redata: SpinPolarized (Up/Down) run      =     F
redata: Number of spin components        =     1
redata: Long output                      =     F
redata: Number of Atomic Species         =        1
redata: Charge density info will appear in .RHO file
redata: Write Mulliken Pop.              =     Atomic and Orbital charges
redata: Mesh Cutoff                      =   500.0000  Ry
redata: Net charge of the system         =     0.0000 |e|
redata: Max. number of SCF Iter          =      200
redata: Performing Pulay mixing using    =     7 iterations
redata: Mix DM in first SCF step ?       =     F
redata: Write Pulay info on disk?        =     F
redata: Discard 1st Pulay DM after  kick =     F
redata: New DM Mixing Weight             =     0.1000
redata: New DM Occupancy tolerance       = 0.000000000001
redata: No kicks to SCF
redata: DM Mixing Weight for Kicks       =     0.5000
redata: DM Tolerance for SCF             =     0.000100
redata: Require Energy convergence for SCF =     F
redata: DM Energy tolerance for SCF      =     0.000100 eV
redata: Require Harris convergence for SCF =     F
redata: DM Harris energy tolerance for SCF =     0.000100 eV
redata: Using Saved Data (generic)   =     T
redata: Use continuation files for DM    =     T
redata: Neglect nonoverlap interactions  =     F
redata: Method of Calculation            =     Diagonalization
redata: Divide and Conquer               =     T
redata: Electronic Temperature           =     0.0019  Ry
redata: Fix the spin of the system       =     F
redata: Dynamics option                  =     CG coord. optimization
redata: Variable cell                    =     F
redata: Use continuation files for CG    =     T
redata: Max atomic displ per move        =     0.2000  Bohr
redata: Maximum number of CG moves       =        0
redata: Force tolerance                  =     0.0016  Ry/Bohr
redata: ***********************************************************************
Total number of electrons:   352.000000
Total ionic charge:   352.000000

* ProcessorY, Blocksize:    8   8

 Kpoints in:            1 . Kpoints trimmed:            1

siesta: k-grid: Number of k-points =     1
siesta: k-grid: Cutoff (effective) =    11.267 Ang
siesta: k-grid: Supercell and displacements
siesta: k-grid:    1   0   0      0.000
siesta: k-grid:    0   1   0      0.000
siesta: k-grid:    0   0   1      0.000

* Maximum dynamic memory allocated =     1 MB

siesta:                 ==============================
                            Begin CG move =      0
                        ==============================

outcell: Unit cell vectors (Ang):
       22.534000    0.000000    0.000000
        0.000000   24.472000    0.000000
        0.000000    0.000000   23.649000

outcell: Cell vector modules (Ang)   :   22.534000   24.472000   23.649000
outcell: Cell angles (23,13,12) (deg):     90.0000     90.0000     90.0000
outcell: Cell volume (Ang**3)        :  13041.2895
New_DM. Step:     1
Initializing Density Matrix...

InitMesh: MESH =   320 x   360 x   320 =    36864000
InitMesh: Mesh cutoff (required, used) =   500.000   506.030 Ry

* Maximum dynamic memory allocated =    80 MB

stepf: Fermi-Dirac step function

siesta: Program's energy decomposition (eV):
siesta: Ebs     =     -1317.521116
siesta: Eions   =     35531.607510
siesta: Ena     =       314.489245
siesta: Ekin    =     27181.985408
siesta: Enl     =    -18115.277726
siesta: DEna    =        -0.000262
siesta: DUscf   =         0.000000
siesta: DUext   =         0.000000
siesta: Exc     =     -5190.371295
siesta: eta*DQ  =         0.000000
siesta: Emadel  =         0.000000
siesta: Emeta   =         0.000000
siesta: Emolmec =         0.000000
siesta: Ekinion =         0.000000
siesta: Eharris =    -31462.648243
siesta: Etot    =    -31340.782141
siesta: FreeEng =    -31340.782141

siesta: iscf   Eharris(eV)      E_KS(eV)   FreeEng(eV)   dDmax  Ef(eV)
siesta:    1   -31462.6482   -31340.7821   -31340.7821  0.6926 -1.5524
timer: Routine,Calls,Time,% = IterSCF        1     860.301  90.40
elaps: Routine,Calls,Wall,% = IterSCF        1      13.616  89.35
siesta:    2   -31495.7855   -31377.9525   -31378.0004  0.8636 -4.6373
siesta:    3   -31430.9549   -31384.3305   -31384.4131  0.4815 -3.4324
siesta:    4   -31429.5193   -31386.9339   -31386.9724  0.4734 -3.2543
siesta:    5   -31428.6878   -31390.0796   -31390.0982  0.3506 -3.1058
siesta:    6   -31429.2897   -31417.9997   -31418.0540  0.1025 -2.6223
siesta:    7   -31428.2121   -31423.2776   -31423.2960  0.0392 -2.8155
siesta:    8   -31428.1508   -31425.9522   -31426.0293  0.0247 -2.8092
siesta:    9   -31428.1402   -31426.6230   -31426.6984  0.0097 -2.8141
siesta:   10   -31428.1347   -31427.1586   -31427.2325  0.0127 -2.8028
siesta:   11   -31428.1345   -31427.3048   -31427.3798  0.0068 -2.8005
siesta:   12   -31428.1343   -31427.7475   -31427.8222  0.0059 -2.7991
siesta:   13   -31428.1345   -31427.8964   -31427.9712  0.0014 -2.7988
siesta:   14   -31428.1345   -31427.9892   -31428.0636  0.0008 -2.7973
siesta:   15   -31428.1345   -31428.1060   -31428.1803  0.0007 -2.7968
siesta:   16   -31428.1346   -31428.1207   -31428.1950  0.0003 -2.7970
siesta:   17   -31428.1346   -31428.1223   -31428.1965  0.0002 -2.7971
siesta:   18   -31428.1346   -31428.1281   -31428.2023  0.0001 -2.7972

siesta: E_KS(eV) =           -31428.1330

siesta: E_KS - E_eggbox =    -31428.1330

siesta: Atomic forces (eV/Ang):
----------------------------------------
   Tot    0.000452   -0.018501   -0.006995
----------------------------------------
   Max    1.316720
   Res    0.625235    sqrt( Sum f_i^2 / 3N )
----------------------------------------
   Max    1.316720    constrained

Stress-tensor-Voigt (kbar):        4.18        4.15        3.95        0.01        0.00        0.00
(Free)E + p*V (eV/cell)   -31461.5237
Target enthalpy (eV/cell)   -31428.2073
 
mulliken: Atomic and Orbital Populations:

Species: Ag                  
Atom  Qatom  Qorb
               5s      5s      4dxy    4dyz    4dz2    4dxz    4dx2-y2 4dxy    
               4dyz    4dz2    4dxz    4dx2-y2 5Ppy    5Ppz    5Ppx    
   1 11.077   0.405   0.411   1.869   1.907   1.896   1.907   1.869   0.033
              0.015   0.025   0.015   0.033   0.248   0.194   0.249
   2 10.986   0.650   0.280   1.942   1.943   1.926   1.973   1.910  -0.003
             -0.006  -0.003  -0.016   0.000   0.182   0.102   0.108
   3 10.986   0.650   0.280   1.942   1.943   1.926   1.973   1.910  -0.003
             -0.006  -0.003  -0.016   0.000   0.182   0.102   0.108
   4 10.985   0.648   0.279   1.918   1.986   1.927   1.929   1.933  -0.001
             -0.020  -0.003  -0.002  -0.002   0.114   0.102   0.176
   5 10.985   0.648   0.279   1.917   1.944   1.926   1.971   1.934   0.000
             -0.007  -0.003  -0.015  -0.002   0.139   0.101   0.151
   6 10.985   0.648   0.279   1.918   1.986   1.927   1.929   1.933  -0.001
             -0.020  -0.003  -0.002  -0.002   0.114   0.102   0.176
   7 10.985   0.648   0.279   1.917   1.944   1.926   1.971   1.934   0.000
             -0.007  -0.003  -0.015  -0.002   0.139   0.101   0.151
   8 11.000   0.458   0.345   1.900   1.926   1.922   1.914   1.885   0.013
              0.009   0.014   0.008   0.022   0.177   0.169   0.238
   9 10.985   0.780   0.234   1.925   1.991   1.938   1.942   1.985  -0.007
             -0.026  -0.015  -0.011  -0.025   0.086   0.080   0.107
  10 10.993   0.451   0.347   1.889   1.917   1.921   1.923   1.896   0.020
              0.009   0.014   0.010   0.015   0.222   0.168   0.191
  11 10.993   0.451   0.347   1.889   1.917   1.921   1.923   1.896   0.020
              0.009   0.014   0.010   0.015   0.222   0.168   0.191
  12 10.993   0.788   0.233   1.970   1.955   1.939   1.979   1.940  -0.021
             -0.015  -0.016  -0.022  -0.012   0.103   0.081   0.092
  13 10.993   0.788   0.233   1.970   1.955   1.939   1.979   1.940  -0.021
             -0.015  -0.016  -0.022  -0.012   0.103   0.081   0.092
  14 11.048   0.543   0.358   1.882   1.914   1.907   1.915   1.893   0.021
              0.011   0.015   0.011   0.017   0.206   0.163   0.191
  15 11.048   0.543   0.358   1.882   1.914   1.907   1.915   1.893   0.021
              0.011   0.015   0.011   0.017   0.206   0.163   0.191
  16 11.048   0.543   0.358   1.898   1.916   1.907   1.913   1.877   0.015
              0.012   0.015   0.010   0.023   0.184   0.164   0.214
  17 10.906   0.643   0.252   1.931   1.991   1.954   1.937   1.987  -0.008
             -0.025  -0.014  -0.010  -0.024   0.084   0.098   0.111
  18 10.905   0.640   0.254   1.973   1.950   1.954   1.977   1.945  -0.020
             -0.014  -0.015  -0.021  -0.012   0.104   0.098   0.091
  19 10.905   0.640   0.254   1.973   1.950   1.954   1.977   1.945  -0.020
             -0.014  -0.015  -0.021  -0.012   0.104   0.098   0.091
  20 11.045   0.536   0.363   1.925   1.877   1.879   1.927   1.902   0.010
              0.023   0.020   0.008   0.014   0.209   0.211   0.140
  21 11.045   0.536   0.363   1.925   1.877   1.879   1.927   1.902   0.010
              0.023   0.020   0.008   0.014   0.209   0.211   0.140
  22 11.045   0.537   0.362   1.908   1.914   1.879   1.889   1.920   0.013
              0.012   0.020   0.020   0.011   0.157   0.211   0.192
  23 11.045   0.537   0.363   1.908   1.914   1.879   1.889   1.920   0.013
              0.012   0.020   0.020   0.011   0.157   0.211   0.191
  24 11.045   0.537   0.362   1.908   1.914   1.879   1.889   1.920   0.013
              0.012   0.020   0.020   0.011   0.157   0.211   0.192
  25 11.045   0.537   0.363   1.908   1.914   1.879   1.889   1.920   0.013
              0.012   0.020   0.020   0.011   0.157   0.211   0.191
  26 11.078   0.173   0.549   1.887   1.892   1.881   1.892   1.887   0.029
              0.028   0.030   0.028   0.029   0.258   0.258   0.258
  27 11.045   0.537   0.362   1.898   1.916   1.907   1.913   1.877   0.015
              0.012   0.015   0.011   0.023   0.184   0.162   0.214
  28 10.904   0.639   0.254   1.931   1.991   1.954   1.937   1.987  -0.008
             -0.025  -0.014  -0.010  -0.024   0.084   0.097   0.111
  29 11.045   0.537   0.362   1.882   1.914   1.907   1.915   1.893   0.021
              0.011   0.015   0.012   0.017   0.206   0.162   0.191
  30 11.045   0.537   0.362   1.882   1.914   1.907   1.915   1.893   0.021
              0.011   0.015   0.012   0.017   0.206   0.162   0.191
  31 10.904   0.639   0.254   1.973   1.950   1.954   1.977   1.945  -0.020
             -0.014  -0.014  -0.021  -0.012   0.104   0.097   0.091
  32 10.904   0.639   0.254   1.973   1.950   1.954   1.977   1.945  -0.020
             -0.014  -0.014  -0.021  -0.012   0.104   0.097   0.091

mulliken: Qtot =      352.000

* Maximum dynamic memory allocated =    80 MB

siesta: Program's energy decomposition (eV):
siesta: Ebs     =     -2136.428315
siesta: Eions   =     35531.607510
siesta: Ena     =       314.489245
siesta: Ekin    =     25877.972863
siesta: Enl     =    -17203.441633
siesta: DEna    =       115.031778
siesta: DUscf   =        21.864148
siesta: DUext   =         0.000000
siesta: Exc     =     -5022.441936
siesta: eta*DQ  =         0.000000
siesta: Emadel  =         0.000000
siesta: Emeta   =         0.000000
siesta: Emolmec =         0.000000
siesta: Ekinion =         0.000000
siesta: Eharris =    -31428.134576
siesta: Etot    =    -31428.133046
siesta: FreeEng =    -31428.207286

siesta: Final energy (eV):
siesta:  Band Struct. =   -2136.428315
siesta:       Kinetic =   25877.972863
siesta:       Hartree =   85670.517753
siesta:    Ext. field =       0.000000
siesta:   Exch.-corr. =   -5022.441936
siesta:  Ion-electron = -192835.989845
siesta:       Ion-ion =   54881.808120
siesta:       Ekinion =       0.000000
siesta:         Total =  -31428.133046

siesta: Atomic forces (eV/Ang):
siesta:      1   -0.006094   -0.002194    0.211264
siesta:      2   -0.989420   -0.147350    0.857613
siesta:      3    0.985667   -0.149517    0.857383
siesta:      4   -0.627486   -0.788461    0.859778
siesta:      5   -0.372752    0.933655    0.864579
siesta:      6    0.635234   -0.787358    0.861349
siesta:      7    0.380344    0.934976    0.866435
siesta:      8   -0.007050   -0.372767   -0.847683
siesta:      9   -0.000037    1.028316   -0.917882
siesta:     10   -0.327269    0.188294   -0.837685
siesta:     11    0.334065    0.185643   -0.837359
siesta:     12   -0.892242   -0.515250   -0.941749
siesta:     13    0.888964   -0.513398   -0.940922
siesta:     14   -0.262487   -0.145995    0.405926
siesta:     15    0.270191   -0.141364    0.405481
siesta:     16   -0.004637    0.299267    0.409465
siesta:     17   -0.002339   -1.316720    0.911746
siesta:     18    1.133529    0.655801    0.923799
siesta:     19   -1.135664    0.656374    0.924297
siesta:     20   -0.517225   -0.002694   -0.001462
siesta:     21    0.514419    0.001886    0.000219
siesta:     22   -0.265230   -0.448743    0.001083
siesta:     23   -0.264100    0.446904    0.000980
siesta:     24    0.271334   -0.450189   -0.000239
siesta:     25    0.270041    0.447482    0.001386
siesta:     26   -0.006597    0.000149    0.000894
siesta:     27   -0.004885   -0.298086   -0.423776
siesta:     28   -0.000552    1.308885   -0.925899
siesta:     29   -0.261907    0.143366   -0.421401
siesta:     30    0.268577    0.144750   -0.421287
siesta:     31   -1.136893   -0.657290   -0.926866
siesta:     32    1.132954   -0.656873   -0.926459
siesta: ----------------------------------------
siesta:    Tot    0.000452   -0.018501   -0.006995

siesta: Stress tensor (static) (eV/Ang**3):
siesta:     0.002606    0.000003    0.000001
siesta:     0.000003    0.002592   -0.000001
siesta:     0.000001   -0.000001    0.002466

siesta: Cell volume =      13041.289483 Ang**3

siesta: Pressure (static):
siesta:                Solid            Molecule  Units
siesta:          -0.00002782         -0.00000004  Ry/Bohr**3
siesta:          -0.00255469         -0.00000397  eV/Ang**3
siesta:          -4.09310385         -0.00635868  kBar
(Free)E+ p_basis*V_orbitals  =      -31405.337075
(Free)Eharris+ p_basis*V_orbitals  =      -31405.343599

siesta: Electric dipole (a.u.)  =   -0.000015    0.209712   -0.807001
siesta: Electric dipole (Debye) =   -0.000039    0.533035   -2.051194

Optical: Performing optical calculation: 

Optical: Polarization type       = polarized   
Optical: Minimum of energy range =   0.0001 Ry 
Optical: Maximum of energy range =   7.3498 Ry 
Optical: Gaussian broadening     =   0.0037 Ry 
Optical: Scissor operator        =   0.0000 Ry 
Optical: Number of bands         =      480
Optical: BZ mesh dimensions      =    1   1   1

Optical: electric field direction
Optical:      0.00000     0.00000     1.00000

Optical: Checking f-sum rule  0.370001
Optical: For insulators and closed shell systems
Optical: this number should be close to 1 if an enough
Optical: number of unoccupied bands have been included

* Maximum dynamic memory allocated : Node    0 =    68 MB
* Maximum dynamic memory allocated : Node    1 =    68 MB
* Maximum dynamic memory allocated : Node    2 =    68 MB
* Maximum dynamic memory allocated : Node    3 =    68 MB
* Maximum dynamic memory allocated : Node    4 =    68 MB
* Maximum dynamic memory allocated : Node    5 =    68 MB
* Maximum dynamic memory allocated : Node    6 =    68 MB
* Maximum dynamic memory allocated : Node    7 =    68 MB
* Maximum dynamic memory allocated : Node    8 =    68 MB
* Maximum dynamic memory allocated : Node    9 =    68 MB
* Maximum dynamic memory allocated : Node   10 =    68 MB
* Maximum dynamic memory allocated : Node   11 =    68 MB
* Maximum dynamic memory allocated : Node   12 =    68 MB
* Maximum dynamic memory allocated : Node   13 =    69 MB
* Maximum dynamic memory allocated : Node   14 =    68 MB
* Maximum dynamic memory allocated : Node   15 =    68 MB
* Maximum dynamic memory allocated : Node   16 =    68 MB
* Maximum dynamic memory allocated : Node   17 =    68 MB
* Maximum dynamic memory allocated : Node   18 =    69 MB
* Maximum dynamic memory allocated : Node   19 =    69 MB
* Maximum dynamic memory allocated : Node   20 =    73 MB
* Maximum dynamic memory allocated : Node   21 =    73 MB
* Maximum dynamic memory allocated : Node   22 =    70 MB
* Maximum dynamic memory allocated : Node   23 =    68 MB
* Maximum dynamic memory allocated : Node   24 =    69 MB
* Maximum dynamic memory allocated : Node   25 =    73 MB
* Maximum dynamic memory allocated : Node   26 =    72 MB
* Maximum dynamic memory allocated : Node   27 =    71 MB
* Maximum dynamic memory allocated : Node   28 =    79 MB
* Maximum dynamic memory allocated : Node   29 =    80 MB
* Maximum dynamic memory allocated : Node   30 =    73 MB
* Maximum dynamic memory allocated : Node   31 =    68 MB
* Maximum dynamic memory allocated : Node   32 =    69 MB
* Maximum dynamic memory allocated : Node   33 =    76 MB
* Maximum dynamic memory allocated : Node   34 =    75 MB
* Maximum dynamic memory allocated : Node   35 =    70 MB
* Maximum dynamic memory allocated : Node   36 =    74 MB
* Maximum dynamic memory allocated : Node   37 =    76 MB
* Maximum dynamic memory allocated : Node   38 =    71 MB
* Maximum dynamic memory allocated : Node   39 =    68 MB
* Maximum dynamic memory allocated : Node   40 =    68 MB
* Maximum dynamic memory allocated : Node   41 =    74 MB
* Maximum dynamic memory allocated : Node   42 =    74 MB
* Maximum dynamic memory allocated : Node   43 =    69 MB
* Maximum dynamic memory allocated : Node   44 =    69 MB
* Maximum dynamic memory allocated : Node   45 =    69 MB
* Maximum dynamic memory allocated : Node   46 =    68 MB
* Maximum dynamic memory allocated : Node   47 =    67 MB
* Maximum dynamic memory allocated : Node   48 =    68 MB
* Maximum dynamic memory allocated : Node   49 =    68 MB
* Maximum dynamic memory allocated : Node   50 =    68 MB
* Maximum dynamic memory allocated : Node   51 =    67 MB
* Maximum dynamic memory allocated : Node   52 =    68 MB
* Maximum dynamic memory allocated : Node   53 =    67 MB
* Maximum dynamic memory allocated : Node   54 =    67 MB
* Maximum dynamic memory allocated : Node   55 =    67 MB
* Maximum dynamic memory allocated : Node   56 =    67 MB
* Maximum dynamic memory allocated : Node   57 =    67 MB
* Maximum dynamic memory allocated : Node   58 =    67 MB
* Maximum dynamic memory allocated : Node   59 =    67 MB
* Maximum dynamic memory allocated : Node   60 =    66 MB
* Maximum dynamic memory allocated : Node   61 =    66 MB
* Maximum dynamic memory allocated : Node   62 =    66 MB
* Maximum dynamic memory allocated : Node   63 =    66 MB

* Maximum memory occured during redistribXY                   

timer: CPU execution times:
timer:  Routine       Calls   Time/call    Tot.time        %
timer:  siesta            1    8636.288    8636.288   100.00
timer:  Setup             1      56.345      56.345     0.65
timer:  bands             1       0.008       0.008     0.00
timer:  writewave         1       0.047       0.047     0.00
timer:  KSV_init          1       0.013       0.013     0.00
timer:  IterMD            1    8095.350    8095.350    93.74
timer:  hsparse           1       0.065       0.065     0.00
timer:  overlap           1      14.004      14.004     0.16
timer:  IterSCF          18     418.213    7527.830    87.17
timer:  kinefsm           2       6.619      13.239     0.15
timer:  nlefsm            2      25.109      50.217     0.58
timer:  DHSCF            19     368.070    6993.330    80.98
timer:  DHSCF1            1      50.035      50.035     0.58
timer:  DHSCF2            1     223.258     223.258     2.59
timer:  REORD           154       0.120      18.467     0.21
timer:  POISON           20      47.137     942.741    10.92
timer:  DHSCF3           19     351.154    6671.935    77.25
timer:  rhoofd           19      18.271     347.158     4.02
timer:  cellXC           19      44.389     843.391     9.77
timer:  vmat             19     110.679    2102.901    24.35
timer:  MolMec            2       0.002       0.005     0.00
timer:  diagon           18      33.929     610.721     7.07
timer:  r-eigvec         18      33.180     597.239     6.92
timer:  r-buildHS        18       0.003       0.047     0.00
timer:  rdiag            19      35.263     669.990     7.76
timer:  rdiag1           19       2.423      46.044     0.53
timer:  rdiag2           19       6.173     117.287     1.36
timer:  rdiag3           19      21.718     412.650     4.78
timer:  rdiag4           19       0.576      10.939     0.13
timer:  r-buildD         18       0.727      13.085     0.15
timer:  DHSCF4            1      40.302      40.302     0.47
timer:  dfscf             1      37.078      37.078     0.43
timer:  overfsm           1       0.082       0.082     0.00
timer:  optical           1     449.623     449.623     5.21
timer:  phirphiopt        1     120.258     120.258     1.39
timer:  transrate         1     243.275     243.275     2.82
  

elaps: ELAPSED times:
elaps:  Routine       Calls   Time/call    Tot.time        %
elaps:  siesta            1     135.435     135.435   100.00
elaps:  Setup             1       0.995       0.995     0.73
elaps:  bands             1       0.000       0.000     0.00
elaps:  writewave         1       0.001       0.001     0.00
elaps:  KSV_init          1       0.000       0.000     0.00
elaps:  IterMD            1     126.809     126.809    93.63
elaps:  hsparse           1       0.001       0.001     0.00
elaps:  overlap           1       0.235       0.235     0.17
elaps:  IterSCF          18       6.550     117.901    87.05
elaps:  kinefsm           2       0.117       0.234     0.17
elaps:  nlefsm            2       0.402       0.804     0.59
elaps:  DHSCF            19       5.716     108.597    80.18
elaps:  DHSCF1            1       0.763       0.763     0.56
elaps:  DHSCF2            1       3.538       3.538     2.61
elaps:  REORD           154       0.002       0.347     0.26
elaps:  POISON           20       0.739      14.774    10.91
elaps:  DHSCF3           19       5.466     103.858    76.68
elaps:  rhoofd           19       0.032       0.616     0.45
elaps:  cellXC           19       0.690      13.117     9.69
elaps:  vmat             19       1.705      32.392    23.92
elaps:  MolMec            2       0.000       0.000     0.00
elaps:  diagon           18       0.559      10.071     7.44
elaps:  r-eigvec         18       0.548       9.859     7.28
elaps:  r-buildHS        18       0.000       0.001     0.00
elaps:  rdiag            19       0.568      10.793     7.97
elaps:  rdiag1           19       0.041       0.788     0.58
elaps:  rdiag2           19       0.097       1.835     1.36
elaps:  rdiag3           19       0.343       6.513     4.81
elaps:  rdiag4           19       0.009       0.170     0.13
elaps:  r-buildD         18       0.011       0.204     0.15
elaps:  DHSCF4            1       0.298       0.298     0.22
elaps:  dfscf             1       0.283       0.283     0.21
elaps:  overfsm           1       0.002       0.002     0.00
elaps:  optical           1       7.314       7.314     5.40
elaps:  phirphiopt        1       2.084       2.084     1.54
elaps:  transrate         1       3.808       3.808     2.81
  
>> End of run:  10-MAY-2012  17:31:53
