#            ENERGY              s1              s2              total
        -30.30000000        0.00000000        0.00000000        0.00000000
        -30.23933934        0.00000000        0.00000000        0.00000000
        -30.17867868        0.00000065        0.00000065        0.00000130
        -30.11801802        0.00001939        0.00001939        0.00003878
        -30.05735736        0.00028950        0.00028950        0.00057900
        -29.99669670        0.00241905        0.00241898        0.00483803
        -29.93603604        0.01165247        0.01165226        0.02330473
        -29.87537538        0.03220598        0.03220591        0.06441189
        -29.81471471        0.05200681        0.05200645        0.10401326
        -29.75405405        0.05679442        0.05679249        0.11358691
        -29.69339339        0.05566606        0.05566495        0.11133100
        -29.63273273        0.05389058        0.05389229        0.10778287
        -29.57207207        0.04781665        0.04781807        0.09563472
        -29.51141141        0.04222339        0.04222284        0.08444623
        -29.45075075        0.04276796        0.04276750        0.08553546
        -29.39009009        0.04374644        0.04374762        0.08749406
        -29.32942943        0.03858044        0.03858164        0.07716208
        -29.26876877        0.03527014        0.03526982        0.07053996
        -29.20810811        0.03702010        0.03701949        0.07403959
        -29.14744745        0.03152060        0.03152098        0.06304158
        -29.08678679        0.01963898        0.01963918        0.03927816
        -29.02612613        0.01260342        0.01260253        0.02520595
        -28.96546547        0.01050833        0.01050793        0.02101626
        -28.90480480        0.00737195        0.00737319        0.01474514
        -28.84414414        0.00296237        0.00296363        0.00592600
        -28.78348348        0.00059831        0.00059872        0.00119704
        -28.72282282        0.00005859        0.00005864        0.00011723
        -28.66216216        0.00000276        0.00000276        0.00000552
        -28.60150150        0.00000000        0.00000000        0.00000000
        -28.54084084        0.00000000        0.00000000        0.00000000
        -28.48018018        0.00000000        0.00000000        0.00000000
        -28.41951952        0.00000000        0.00000000        0.00000000
        -28.35885886        0.00000000        0.00000000        0.00000000
        -28.29819820        0.00000000        0.00000000        0.00000000
        -28.23753754        0.00000000        0.00000000        0.00000000
        -28.17687688        0.00000000        0.00000000        0.00000000
        -28.11621622        0.00000000        0.00000000        0.00000000
        -28.05555556        0.00000000        0.00000000        0.00000000
        -27.99489489        0.00000000        0.00000000        0.00000000
        -27.93423423        0.00000000        0.00000000        0.00000000
        -27.87357357        0.00000000        0.00000000        0.00000000
        -27.81291291        0.00000000        0.00000000        0.00000000
        -27.75225225        0.00000000        0.00000000        0.00000000
        -27.69159159        0.00000000        0.00000000        0.00000000
        -27.63093093        0.00000000        0.00000000        0.00000000
        -27.57027027        0.00000000        0.00000000        0.00000000
        -27.50960961        0.00000000        0.00000000        0.00000000
        -27.44894895        0.00000000        0.00000000        0.00000000
        -27.38828829        0.00000000        0.00000000        0.00000000
        -27.32762763        0.00000000        0.00000000        0.00000000
        -27.26696697        0.00000000        0.00000000        0.00000000
        -27.20630631        0.00000000        0.00000000        0.00000000
        -27.14564565        0.00000000        0.00000000        0.00000000
        -27.08498498        0.00000000        0.00000000        0.00000000
        -27.02432432        0.00000000        0.00000000        0.00000000
        -26.96366366        0.00000000        0.00000000        0.00000000
        -26.90300300        0.00000000        0.00000000        0.00000000
        -26.84234234        0.00000000        0.00000000        0.00000000
        -26.78168168        0.00000000        0.00000000        0.00000000
        -26.72102102        0.00000000        0.00000000        0.00000000
        -26.66036036        0.00000000        0.00000000        0.00000000
        -26.59969970        0.00000000        0.00000000        0.00000000
        -26.53903904        0.00000000        0.00000000        0.00000000
        -26.47837838        0.00000000        0.00000000        0.00000000
        -26.41771772        0.00000000        0.00000000        0.00000000
        -26.35705706        0.00000000        0.00000000        0.00000000
        -26.29639640        0.00000000        0.00000000        0.00000000
        -26.23573574        0.00000000        0.00000000        0.00000000
        -26.17507508        0.00000000        0.00000000        0.00000000
        -26.11441441        0.00000000        0.00000000        0.00000000
        -26.05375375        0.00000000        0.00000000        0.00000000
        -25.99309309        0.00000000        0.00000000        0.00000000
        -25.93243243        0.00000000        0.00000000        0.00000000
        -25.87177177        0.00000000        0.00000000        0.00000000
        -25.81111111        0.00000000        0.00000000        0.00000000
        -25.75045045        0.00000000        0.00000000        0.00000000
        -25.68978979        0.00000000        0.00000000        0.00000000
        -25.62912913        0.00000000        0.00000000        0.00000000
        -25.56846847        0.00000000        0.00000000        0.00000000
        -25.50780781        0.00000000        0.00000000        0.00000000
        -25.44714715        0.00000000        0.00000000        0.00000000
        -25.38648649        0.00000000        0.00000000        0.00000000
        -25.32582583        0.00000000        0.00000000        0.00000000
        -25.26516517        0.00000000        0.00000000        0.00000000
        -25.20450450        0.00000000        0.00000000        0.00000000
        -25.14384384        0.00000000        0.00000000        0.00000000
        -25.08318318        0.00000000        0.00000000        0.00000000
        -25.02252252        0.00000000        0.00000000        0.00000000
        -24.96186186        0.00000000        0.00000000        0.00000000
        -24.90120120        0.00000000        0.00000000        0.00000000
        -24.84054054        0.00000000        0.00000000        0.00000000
        -24.77987988        0.00000000        0.00000000        0.00000000
        -24.71921922        0.00000000        0.00000000        0.00000000
        -24.65855856        0.00000000        0.00000000        0.00000000
        -24.59789790        0.00000000        0.00000000        0.00000000
        -24.53723724        0.00000000        0.00000000        0.00000000
        -24.47657658        0.00000000        0.00000000        0.00000000
        -24.41591592        0.00000000        0.00000000        0.00000000
        -24.35525526        0.00000000        0.00000000        0.00000000
        -24.29459459        0.00000000        0.00000000        0.00000000
        -24.23393393        0.00000000        0.00000000        0.00000000
        -24.17327327        0.00000000        0.00000000        0.00000000
        -24.11261261        0.00000000        0.00000000        0.00000000
        -24.05195195        0.00000000        0.00000000        0.00000000
        -23.99129129        0.00000000        0.00000000        0.00000000
        -23.93063063        0.00000000        0.00000000        0.00000000
        -23.86996997        0.00000000        0.00000000        0.00000000
        -23.80930931        0.00000000        0.00000000        0.00000000
        -23.74864865        0.00000000        0.00000000        0.00000000
        -23.68798799        0.00000000        0.00000000        0.00000000
        -23.62732733        0.00000000        0.00000000        0.00000000
        -23.56666667        0.00000000        0.00000000        0.00000000
        -23.50600601        0.00000000        0.00000000        0.00000000
        -23.44534535        0.00000000        0.00000000        0.00000000
        -23.38468468        0.00000000        0.00000000        0.00000000
        -23.32402402        0.00000000        0.00000000        0.00000000
        -23.26336336        0.00000000        0.00000000        0.00000000
        -23.20270270        0.00000000        0.00000000        0.00000000
        -23.14204204        0.00000000        0.00000000        0.00000000
        -23.08138138        0.00000000        0.00000000        0.00000000
        -23.02072072        0.00000000        0.00000000        0.00000000
        -22.96006006        0.00000000        0.00000000        0.00000000
        -22.89939940        0.00000000        0.00000000        0.00000000
        -22.83873874        0.00000000        0.00000000        0.00000000
        -22.77807808        0.00000000        0.00000000        0.00000000
        -22.71741742        0.00000000        0.00000000        0.00000000
        -22.65675676        0.00000000        0.00000000        0.00000000
        -22.59609610        0.00000000        0.00000000        0.00000000
        -22.53543544        0.00000000        0.00000000        0.00000000
        -22.47477477        0.00000000        0.00000000        0.00000000
        -22.41411411        0.00000000        0.00000000        0.00000000
        -22.35345345        0.00000000        0.00000000        0.00000000
        -22.29279279        0.00000000        0.00000000        0.00000000
        -22.23213213        0.00000000        0.00000000        0.00000000
        -22.17147147        0.00000000        0.00000000        0.00000000
        -22.11081081        0.00000000        0.00000000        0.00000000
        -22.05015015        0.00000000        0.00000000        0.00000000
        -21.98948949        0.00000000        0.00000000        0.00000000
        -21.92882883        0.00000000        0.00000000        0.00000000
        -21.86816817        0.00000000        0.00000000        0.00000000
        -21.80750751        0.00000000        0.00000000        0.00000000
        -21.74684685        0.00000000        0.00000000        0.00000000
        -21.68618619        0.00000000        0.00000000        0.00000000
        -21.62552553        0.00000000        0.00000000        0.00000000
        -21.56486486        0.00000000        0.00000000        0.00000000
        -21.50420420        0.00000000        0.00000000        0.00000000
        -21.44354354        0.00000000        0.00000000        0.00000000
        -21.38288288        0.00000000        0.00000000        0.00000000
        -21.32222222        0.00000000        0.00000000        0.00000000
        -21.26156156        0.00000000        0.00000000        0.00000000
        -21.20090090        0.00000000        0.00000000        0.00000000
        -21.14024024        0.00000000        0.00000000        0.00000000
        -21.07957958        0.00000000        0.00000000        0.00000000
        -21.01891892        0.00000000        0.00000000        0.00000000
        -20.95825826        0.00000000        0.00000000        0.00000000
        -20.89759760        0.00000000        0.00000000        0.00000000
        -20.83693694        0.00000000        0.00000000        0.00000000
        -20.77627628        0.00000000        0.00000000        0.00000000
        -20.71561562        0.00000002        0.00000002        0.00000004
        -20.65495495        0.00000057        0.00000057        0.00000114
        -20.59429429        0.00000991        0.00000990        0.00001981
        -20.53363363        0.00009152        0.00009151        0.00018303
        -20.47297297        0.00050997        0.00050990        0.00101987
        -20.41231231        0.00176866        0.00176848        0.00353713
        -20.35165165        0.00372525        0.00372501        0.00745026
        -20.29099099        0.00501746        0.00501726        0.01003472
        -20.23033033        0.00572967        0.00572945        0.01145912
        -20.16966967        0.00712380        0.00712373        0.01424753
        -20.10900901        0.00870496        0.00870507        0.01741003
        -20.04834835        0.01008671        0.01008685        0.02017356
        -19.98768769        0.01010158        0.01010176        0.02020334
        -19.92702703        0.00861996        0.00861999        0.01723995
        -19.86636637        0.00858305        0.00858283        0.01716588
        -19.80570571        0.00980832        0.00980817        0.01961649
        -19.74504505        0.00989767        0.00989766        0.01979534
        -19.68438438        0.00920539        0.00920536        0.01841075
        -19.62372372        0.00919777        0.00919767        0.01839544
        -19.56306306        0.00968784        0.00968775        0.01937560
        -19.50240240        0.00987449        0.00987446        0.01974895
        -19.44174174        0.01000986        0.01000982        0.02001968
        -19.38108108        0.01039807        0.01039799        0.02079606
        -19.32042042        0.01011078        0.01011069        0.02022148
        -19.25975976        0.00895253        0.00895246        0.01790499
        -19.19909910        0.00767886        0.00767884        0.01535770
        -19.13843844        0.00656230        0.00656229        0.01312459
        -19.07777778        0.00599159        0.00599155        0.01198314
        -19.01711712        0.00593759        0.00593754        0.01187514
        -18.95645646        0.00588817        0.00588812        0.01177628
        -18.89579580        0.00570798        0.00570792        0.01141590
        -18.83513514        0.00553367        0.00553359        0.01106727
        -18.77447447        0.00562394        0.00562385        0.01124780
        -18.71381381        0.00605733        0.00605723        0.01211456
        -18.65315315        0.00641953        0.00641944        0.01283897
        -18.59249249        0.00646832        0.00646825        0.01293657
        -18.53183183        0.00631209        0.00631198        0.01262407
        -18.47117117        0.00629411        0.00629392        0.01258803
        -18.41051051        0.00670192        0.00670170        0.01340361
        -18.34984985        0.00720484        0.00720467        0.01440951
        -18.28918919        0.00777724        0.00777713        0.01555437
        -18.22852853        0.00875465        0.00875455        0.01750919
        -18.16786787        0.01014150        0.01014150        0.02028301
        -18.10720721        0.01014522        0.01014551        0.02029072
        -18.04654655        0.00765500        0.00765540        0.01531041
        -17.98588589        0.00471300        0.00471316        0.00942616
        -17.92522523        0.00322847        0.00322840        0.00645686
        -17.86456456        0.00313162        0.00313163        0.00626325
        -17.80390390        0.00342483        0.00342494        0.00684977
        -17.74324324        0.00308807        0.00308815        0.00617622
        -17.68258258        0.00171806        0.00171810        0.00343616
        -17.62192192        0.00049765        0.00049767        0.00099532
        -17.56126126        0.00007067        0.00007067        0.00014134
        -17.50060060        0.00000483        0.00000483        0.00000967
        -17.43993994        0.00000016        0.00000016        0.00000032
        -17.37927928        0.00000000        0.00000000        0.00000000
        -17.31861862        0.00000002        0.00000002        0.00000004
        -17.25795796        0.00000139        0.00000139        0.00000278
        -17.19729730        0.00003230        0.00003230        0.00006460
        -17.13663664        0.00038671        0.00038666        0.00077337
        -17.07597598        0.00237233        0.00237208        0.00474441
        -17.01531532        0.00745979        0.00745934        0.01491912
        -16.95465465        0.01266493        0.01266461        0.02532954
        -16.89399399        0.01459774        0.01459742        0.02919516
        -16.83333333        0.01734569        0.01734514        0.03469083
        -16.77267267        0.02182788        0.02182766        0.04365554
        -16.71201201        0.02453798        0.02453803        0.04907601
        -16.65135135        0.02503366        0.02503356        0.05006722
        -16.59069069        0.02341663        0.02341635        0.04683298
        -16.53003003        0.02106190        0.02106158        0.04212349
        -16.46936937        0.01992898        0.01992873        0.03985771
        -16.40870871        0.02018631        0.02018618        0.04037249
        -16.34804805        0.02000900        0.02000902        0.04001803
        -16.28738739        0.01836879        0.01836877        0.03673755
        -16.22672673        0.01677748        0.01677723        0.03355471
        -16.16606607        0.01636656        0.01636620        0.03273276
        -16.10540541        0.01648442        0.01648408        0.03296851
        -16.04474474        0.01677053        0.01677010        0.03354063
        -15.98408408        0.01813434        0.01813378        0.03626813
        -15.92342342        0.02251663        0.02251596        0.04503259
        -15.86276276        0.02782731        0.02782660        0.05565392
        -15.80210210        0.02913659        0.02913567        0.05827225
        -15.74144144        0.02839327        0.02839191        0.05678518
        -15.68078078        0.02965489        0.02965331        0.05930821
        -15.62012012        0.03226836        0.03226692        0.06453528
        -15.55945946        0.03400628        0.03400487        0.06801115
        -15.49879880        0.03716742        0.03716553        0.07433295
        -15.43813814        0.04636542        0.04636245        0.09272786
        -15.37747748        0.06189321        0.06188851        0.12378172
        -15.31681682        0.07873260        0.07872740        0.15745999
        -15.25615616        0.08598965        0.08598579        0.17197543
        -15.19549550        0.08658523        0.08658166        0.17316688
        -15.13483483        0.09241185        0.09240817        0.18482002
        -15.07417417        0.09819391        0.09819154        0.19638545
        -15.01351351        0.09720549        0.09720426        0.19440975
        -14.95285285        0.09309926        0.09309811        0.18619737
        -14.89219219        0.08892813        0.08892790        0.17785603
        -14.83153153        0.08314976        0.08315131        0.16630107
        -14.77087087        0.07791525        0.07791668        0.15583193
        -14.71021021        0.07403294        0.07403271        0.14806565
        -14.64954955        0.06874527        0.06874419        0.13748946
        -14.58888889        0.06071100        0.06071063        0.12142162
        -14.52822823        0.04622759        0.04622860        0.09245620
        -14.46756757        0.02520699        0.02520875        0.05041574
        -14.40690691        0.00826607        0.00826725        0.01653332
        -14.34624625        0.00146234        0.00146269        0.00292504
        -14.28558559        0.00013195        0.00013200        0.00026395
        -14.22492492        0.00000615        0.00000615        0.00001230
        -14.16426426        0.00000950        0.00000950        0.00001901
        -14.10360360        0.00014995        0.00014993        0.00029988
        -14.04294294        0.00120757        0.00120741        0.00241498
        -13.98228228        0.00574839        0.00574776        0.01149616
        -13.92162162        0.01980115        0.01979908        0.03960023
        -13.86096096        0.05167442        0.05166926        0.10334368
        -13.80030030        0.09059785        0.09059116        0.18118900
        -13.73963964        0.10609160        0.10608873        0.21218033
        -13.67897898        0.10551698        0.10551756        0.21103454
        -13.61831832        0.11440890        0.11441040        0.22881931
        -13.55765766        0.12333945        0.12334062        0.24668008
        -13.49699700        0.12284341        0.12284237        0.24568577
        -13.43633634        0.12198359        0.12198104        0.24396463
        -13.37567568        0.12110001        0.12109731        0.24219732
        -13.31501502        0.11520316        0.11520068        0.23040384
        -13.25435435        0.11008612        0.11008410        0.22017023
        -13.19369369        0.10924113        0.10923941        0.21848054
        -13.13303303        0.11002546        0.11002363        0.22004908
        -13.07237237        0.10808656        0.10808497        0.21617153
        -13.01171171        0.09913634        0.09913497        0.19827131
        -12.95105105        0.08873498        0.08873351        0.17746849
        -12.89039039        0.08506606        0.08506489        0.17013095
        -12.82972973        0.08673521        0.08673413        0.17346934
        -12.76906907        0.09660591        0.09660372        0.19320963
        -12.70840841        0.11592917        0.11592638        0.23185556
        -12.64774775        0.12330165        0.12329983        0.24660148
        -12.58708709        0.11048830        0.11048719        0.22097549
        -12.52642643        0.09808467        0.09808377        0.19616845
        -12.46576577        0.08757315        0.08757348        0.17514663
        -12.40510511        0.06714679        0.06714836        0.13429515
        -12.34444444        0.04436461        0.04436600        0.08873061
        -12.28378378        0.02854803        0.02854851        0.05709654
        -12.22312312        0.01744582        0.01744547        0.03489129
        -12.16246246        0.01315270        0.01315136        0.02630405
        -12.10180180        0.01867840        0.01867574        0.03735415
        -12.04114114        0.03147925        0.03147493        0.06295417
        -11.98048048        0.05436254        0.05435689        0.10871943
        -11.91981982        0.08566116        0.08565627        0.17131743
        -11.85915916        0.10693980        0.10693740        0.21387720
        -11.79849850        0.11089124        0.11088950        0.22178074
        -11.73783784        0.11572661        0.11572166        0.23144827
        -11.67717718        0.14465758        0.14464774        0.28930532
        -11.61651652        0.18168843        0.18167850        0.36336693
        -11.55585586        0.18109442        0.18108778        0.36218220
        -11.49519520        0.15044322        0.15043624        0.30087946
        -11.43453453        0.13093844        0.13093128        0.26186972
        -11.37387387        0.12656920        0.12656287        0.25313207
        -11.31321321        0.12164616        0.12163558        0.24328174
        -11.25255255        0.11624412        0.11622943        0.23247355
        -11.19189189        0.11059282        0.11058421        0.22117703
        -11.13123123        0.09763764        0.09763995        0.19527759
        -11.07057057        0.08443571        0.08444236        0.16887807
        -11.00990991        0.07984271        0.07984747        0.15969018
        -10.94924925        0.07448212        0.07448376        0.14896588
        -10.88858859        0.06371265        0.06371099        0.12742365
        -10.82792793        0.06593916        0.06593007        0.13186923
        -10.76726727        0.09500181        0.09498469        0.18998650
        -10.70660661        0.14366336        0.14365250        0.28731586
        -10.64594595        0.18433039        0.18432896        0.36865935
        -10.58528529        0.19541674        0.19540616        0.39082289
        -10.52462462        0.19177275        0.19175003        0.38352278
        -10.46396396        0.19601053        0.19598884        0.39199936
        -10.40330330        0.21448101        0.21447157        0.42895257
        -10.34264264        0.24151793        0.24151939        0.48303732
        -10.28198198        0.25331597        0.25332012        0.50663610
        -10.22132132        0.24879987        0.24879848        0.49759835
        -10.16066066        0.23411402        0.23410485        0.46821887
        -10.10000000        0.20996668        0.20995539        0.41992208
        -10.03933934        0.20151308        0.20150158        0.40301466
         -9.97867868        0.22227625        0.22226614        0.44454239
         -9.91801802        0.25761436        0.25761110        0.51522546
         -9.85735736        0.30143162        0.30142853        0.60286015
         -9.79669670        0.34668944        0.34667442        0.69336387
         -9.73603604        0.36993420        0.36991078        0.73984498
         -9.67537538        0.37325879        0.37323650        0.74649529
         -9.61471471        0.38415840        0.38413472        0.76829312
         -9.55405405        0.41201214        0.41198392        0.82399606
         -9.49339339        0.44783540        0.44780720        0.89564261
         -9.43273273        0.47559379        0.47556717        0.95116095
         -9.37207207        0.47410265        0.47407970        0.94818235
         -9.31141141        0.45644058        0.45641886        0.91285944
         -9.25075075        0.44699983        0.44696822        0.89396805
         -9.19009009        0.44427089        0.44422765        0.88849854
         -9.12942943        0.43803336        0.43798528        0.87601864
         -9.06876877        0.42296440        0.42291384        0.84587823
         -9.00810811        0.40565583        0.40560542        0.81126125
         -8.94744745        0.42330077        0.42325442        0.84655519
         -8.88678679        0.48090481        0.48086308        0.96176789
         -8.82612613        0.52625390        0.52621297        1.05246687
         -8.76546547        0.54036761        0.54033852        1.08070612
         -8.70480480        0.56093056        0.56093883        1.12186939
         -8.64414414        0.61879313        0.61884921        1.23764235
         -8.58348348        0.67555396        0.67564087        1.35119483
         -8.52282282        0.67395513        0.67407718        1.34803231
         -8.46216216        0.73501696        0.73536350        1.47038046
         -8.40150150        1.25724622        1.25815762        2.51540383
         -8.34084084        2.35834577        2.35931725        4.71766302
         -8.28018018        2.86411955        2.86374055        5.72786010
         -8.21951952        1.98130388        1.97992056        3.96122443
         -8.15885886        0.97037889        0.96925928        1.93963818
         -8.09819820        0.69015141        0.68900732        1.37915873
         -8.03753754        0.86270922        0.86040283        1.72311204
         -7.97687688        1.22331418        1.21922096        2.44253514
         -7.91621622        1.60064759        1.59496047        3.19560806
         -7.85555556        2.10690656        2.10143560        4.20834216
         -7.79489489        2.58314228        2.58335441        5.16649669
         -7.73423423        2.53432093        2.54115790        5.07547883
         -7.67357357        2.43444279        2.44135524        4.87579803
         -7.61291291        2.97886346        2.98247922        5.96134267
         -7.55225225        4.02167687        4.02283981        8.04451668
         -7.49159159        5.12594888        5.12473840       10.25068728
         -7.43093093        5.97796454        5.97328133       11.95124587
         -7.37027027        6.30557953        6.29823110       12.60381063
         -7.30960961        6.05995070        6.05491135       12.11486205
         -7.24894895        5.21932405        5.22165777       10.44098182
         -7.18828829        3.57365018        3.58071436        7.15436454
         -7.12762763        2.07124702        2.07607387        4.14732088
         -7.06696697        1.87725013        1.87782359        3.75507373
         -7.00630631        2.55502553        2.55392933        5.10895486
         -6.94564565        3.21999615        3.21947743        6.43947358
         -6.88498498        3.45205309        3.45132350        6.90337659
         -6.82432432        3.12674785        3.12617506        6.25292291
         -6.76366366        2.72276981        2.72253781        5.44530763
         -6.70300300        2.87030384        2.86884106        5.73914490
         -6.64234234        3.01952634        3.01874397        6.03827031
         -6.58168168        2.40390967        2.40544558        4.80935524
         -6.52102102        1.53313356        1.53520136        3.06833492
         -6.46036036        0.93289378        0.93435511        1.86724889
         -6.39969970        0.64421658        0.64461547        1.28883205
         -6.33903904        0.65525618        0.65458321        1.30983939
         -6.27837838        0.81976236        0.81896623        1.63872858
         -6.21771772        0.92696721        0.92713931        1.85410651
         -6.15705706        0.86468624        0.86548065        1.73016689