#            ENERGY              s1              s2              total
        -30.30000000        0.00000000        0.00000000        0.00000000
        -30.23933934        0.00000000        0.00000000        0.00000000
        -30.17867868        0.00000123        0.00000123        0.00000245
        -30.11801802        0.00003771        0.00003772        0.00007543
        -30.05735736        0.00057088        0.00057085        0.00114173
        -29.99669670        0.00481657        0.00481620        0.00963277
        -29.93603604        0.02346006        0.02345857        0.04691863
        -29.87537538        0.06593193        0.06592972        0.13186165
        -29.81471471        0.10881663        0.10881471        0.21763135
        -29.75405405        0.12004146        0.12003826        0.24007972
        -29.69339339        0.11583168        0.11582965        0.23166133
        -29.63273273        0.11143586        0.11143819        0.22287404
        -29.57207207        0.09741603        0.09741803        0.19483406
        -29.51141141        0.08147954        0.08147769        0.16295723
        -29.45075075        0.08019237        0.08019025        0.16038262
        -29.39009009        0.08249604        0.08249810        0.16499413
        -29.32942943        0.07191068        0.07191381        0.14382450
        -29.26876877        0.06270067        0.06270067        0.12540133
        -29.20810811        0.06232206        0.06232088        0.12464294
        -29.14744745        0.05092584        0.05092609        0.10185194
        -29.08678679        0.03022665        0.03022678        0.06045343
        -29.02612613        0.01853785        0.01853636        0.03707421
        -28.96546547        0.01555874        0.01555797        0.03111671
        -28.90480480        0.01108005        0.01108179        0.02216184
        -28.84414414        0.00447660        0.00447845        0.00895505
        -28.78348348        0.00090542        0.00090603        0.00181146
        -28.72282282        0.00008871        0.00008879        0.00017749
        -28.66216216        0.00000418        0.00000418        0.00000836
        -28.60150150        0.00000000        0.00000000        0.00000000
        -28.54084084        0.00000000        0.00000000        0.00000000
        -28.48018018        0.00000000        0.00000000        0.00000000
        -28.41951952        0.00000000        0.00000000        0.00000000
        -28.35885886        0.00000000        0.00000000        0.00000000
        -28.29819820        0.00000000        0.00000000        0.00000000
        -28.23753754        0.00000000        0.00000000        0.00000000
        -28.17687688        0.00000000        0.00000000        0.00000000
        -28.11621622        0.00000000        0.00000000        0.00000000
        -28.05555556        0.00000000        0.00000000        0.00000000
        -27.99489489        0.00000000        0.00000000        0.00000000
        -27.93423423        0.00000000        0.00000000        0.00000000
        -27.87357357        0.00000000        0.00000000        0.00000000
        -27.81291291        0.00000000        0.00000000        0.00000000
        -27.75225225        0.00000000        0.00000000        0.00000000
        -27.69159159        0.00000000        0.00000000        0.00000000
        -27.63093093        0.00000000        0.00000000        0.00000000
        -27.57027027        0.00000000        0.00000000        0.00000000
        -27.50960961        0.00000000        0.00000000        0.00000000
        -27.44894895        0.00000000        0.00000000        0.00000000
        -27.38828829        0.00000000        0.00000000        0.00000000
        -27.32762763        0.00000000        0.00000000        0.00000000
        -27.26696697        0.00000000        0.00000000        0.00000000
        -27.20630631        0.00000000        0.00000000        0.00000000
        -27.14564565        0.00000000        0.00000000        0.00000000
        -27.08498498        0.00000000        0.00000000        0.00000000
        -27.02432432        0.00000000        0.00000000        0.00000000
        -26.96366366        0.00000000        0.00000000        0.00000000
        -26.90300300        0.00000000        0.00000000        0.00000000
        -26.84234234        0.00000000        0.00000000        0.00000000
        -26.78168168        0.00000000        0.00000000        0.00000000
        -26.72102102        0.00000000        0.00000000        0.00000000
        -26.66036036        0.00000000        0.00000000        0.00000000
        -26.59969970        0.00000000        0.00000000        0.00000000
        -26.53903904        0.00000000        0.00000000        0.00000000
        -26.47837838        0.00000000        0.00000000        0.00000000
        -26.41771772        0.00000000        0.00000000        0.00000000
        -26.35705706        0.00000000        0.00000000        0.00000000
        -26.29639640        0.00000000        0.00000000        0.00000000
        -26.23573574        0.00000000        0.00000000        0.00000000
        -26.17507508        0.00000000        0.00000000        0.00000000
        -26.11441441        0.00000000        0.00000000        0.00000000
        -26.05375375        0.00000000        0.00000000        0.00000000
        -25.99309309        0.00000000        0.00000000        0.00000000
        -25.93243243        0.00000000        0.00000000        0.00000000
        -25.87177177        0.00000000        0.00000000        0.00000000
        -25.81111111        0.00000000        0.00000000        0.00000000
        -25.75045045        0.00000000        0.00000000        0.00000000
        -25.68978979        0.00000000        0.00000000        0.00000000
        -25.62912913        0.00000000        0.00000000        0.00000000
        -25.56846847        0.00000000        0.00000000        0.00000000
        -25.50780781        0.00000000        0.00000000        0.00000000
        -25.44714715        0.00000000        0.00000000        0.00000000
        -25.38648649        0.00000000        0.00000000        0.00000000
        -25.32582583        0.00000000        0.00000000        0.00000000
        -25.26516517        0.00000000        0.00000000        0.00000000
        -25.20450450        0.00000000        0.00000000        0.00000000
        -25.14384384        0.00000000        0.00000000        0.00000000
        -25.08318318        0.00000000        0.00000000        0.00000000
        -25.02252252        0.00000000        0.00000000        0.00000000
        -24.96186186        0.00000000        0.00000000        0.00000000
        -24.90120120        0.00000000        0.00000000        0.00000000
        -24.84054054        0.00000000        0.00000000        0.00000000
        -24.77987988        0.00000000        0.00000000        0.00000000
        -24.71921922        0.00000000        0.00000000        0.00000000
        -24.65855856        0.00000000        0.00000000        0.00000000
        -24.59789790        0.00000000        0.00000000        0.00000000
        -24.53723724        0.00000000        0.00000000        0.00000000
        -24.47657658        0.00000000        0.00000000        0.00000000
        -24.41591592        0.00000000        0.00000000        0.00000000
        -24.35525526        0.00000000        0.00000000        0.00000000
        -24.29459459        0.00000000        0.00000000        0.00000000
        -24.23393393        0.00000000        0.00000000        0.00000000
        -24.17327327        0.00000000        0.00000000        0.00000000
        -24.11261261        0.00000000        0.00000000        0.00000000
        -24.05195195        0.00000000        0.00000000        0.00000000
        -23.99129129        0.00000000        0.00000000        0.00000000
        -23.93063063        0.00000000        0.00000000        0.00000000
        -23.86996997        0.00000000        0.00000000        0.00000000
        -23.80930931        0.00000000        0.00000000        0.00000000
        -23.74864865        0.00000000        0.00000000        0.00000000
        -23.68798799        0.00000000        0.00000000        0.00000000
        -23.62732733        0.00000000        0.00000000        0.00000000
        -23.56666667        0.00000000        0.00000000        0.00000000
        -23.50600601        0.00000000        0.00000000        0.00000000
        -23.44534535        0.00000000        0.00000000        0.00000000
        -23.38468468        0.00000000        0.00000000        0.00000000
        -23.32402402        0.00000000        0.00000000        0.00000000
        -23.26336336        0.00000000        0.00000000        0.00000000
        -23.20270270        0.00000000        0.00000000        0.00000000
        -23.14204204        0.00000000        0.00000000        0.00000000
        -23.08138138        0.00000000        0.00000000        0.00000000
        -23.02072072        0.00000000        0.00000000        0.00000000
        -22.96006006        0.00000000        0.00000000        0.00000000
        -22.89939940        0.00000000        0.00000000        0.00000000
        -22.83873874        0.00000000        0.00000000        0.00000000
        -22.77807808        0.00000000        0.00000000        0.00000000
        -22.71741742        0.00000000        0.00000000        0.00000000
        -22.65675676        0.00000000        0.00000000        0.00000000
        -22.59609610        0.00000000        0.00000000        0.00000000
        -22.53543544        0.00000000        0.00000000        0.00000000
        -22.47477477        0.00000000        0.00000000        0.00000000
        -22.41411411        0.00000000        0.00000000        0.00000000
        -22.35345345        0.00000000        0.00000000        0.00000000
        -22.29279279        0.00000000        0.00000000        0.00000000
        -22.23213213        0.00000000        0.00000000        0.00000000
        -22.17147147        0.00000000        0.00000000        0.00000000
        -22.11081081        0.00000000        0.00000000        0.00000000
        -22.05015015        0.00000000        0.00000000        0.00000000
        -21.98948949        0.00000000        0.00000000        0.00000000
        -21.92882883        0.00000000        0.00000000        0.00000000
        -21.86816817        0.00000000        0.00000000        0.00000000
        -21.80750751        0.00000000        0.00000000        0.00000000
        -21.74684685        0.00000000        0.00000000        0.00000000
        -21.68618619        0.00000000        0.00000000        0.00000000
        -21.62552553        0.00000000        0.00000000        0.00000000
        -21.56486486        0.00000000        0.00000000        0.00000000
        -21.50420420        0.00000000        0.00000000        0.00000000
        -21.44354354        0.00000000        0.00000000        0.00000000
        -21.38288288        0.00000000        0.00000000        0.00000000
        -21.32222222        0.00000000        0.00000000        0.00000000
        -21.26156156        0.00000000        0.00000000        0.00000000
        -21.20090090        0.00000000        0.00000000        0.00000000
        -21.14024024        0.00000000        0.00000000        0.00000000
        -21.07957958        0.00000000        0.00000000        0.00000000
        -21.01891892        0.00000000        0.00000000        0.00000000
        -20.95825826        0.00000000        0.00000000        0.00000000
        -20.89759760        0.00000000        0.00000000        0.00000000
        -20.83693694        0.00000000        0.00000000        0.00000000
        -20.77627628        0.00000000        0.00000000        0.00000000
        -20.71561562        0.00000003        0.00000003        0.00000007
        -20.65495495        0.00000108        0.00000108        0.00000216
        -20.59429429        0.00001938        0.00001938        0.00003875
        -20.53363363        0.00018663        0.00018660        0.00037323
        -20.47297297        0.00112238        0.00112223        0.00224461
        -20.41231231        0.00432833        0.00432786        0.00865619
        -20.35165165        0.01032474        0.01032411        0.02064885
        -20.29099099        0.01554014        0.01553967        0.03107981
        -20.23033033        0.01757718        0.01757663        0.03515380
        -20.16966967        0.01896973        0.01896929        0.03793902
        -20.10900901        0.02037410        0.02037408        0.04074818
        -20.04834835        0.02173183        0.02173194        0.04346377
        -19.98768769        0.02206862        0.02206870        0.04413732
        -19.92702703        0.02069840        0.02069815        0.04139654
        -19.86636637        0.02149659        0.02149597        0.04299256
        -19.80570571        0.02402101        0.02402057        0.04804158
        -19.74504505        0.02391354        0.02391342        0.04782696
        -19.68438438        0.02175516        0.02175501        0.04351018
        -19.62372372        0.02094519        0.02094484        0.04189003
        -19.56306306        0.02153010        0.02152970        0.04305980
        -19.50240240        0.02202159        0.02202131        0.04404290
        -19.44174174        0.02261997        0.02261969        0.04523967
        -19.38108108        0.02363957        0.02363921        0.04727878
        -19.32042042        0.02349071        0.02349032        0.04698102
        -19.25975976        0.02164732        0.02164694        0.04329427
        -19.19909910        0.01926301        0.01926271        0.03852572
        -19.13843844        0.01702779        0.01702752        0.03405531
        -19.07777778        0.01645259        0.01645221        0.03290480
        -19.01711712        0.01758813        0.01758770        0.03517583
        -18.95645646        0.01821433        0.01821397        0.03642830
        -18.89579580        0.01745435        0.01745407        0.03490842
        -18.83513514        0.01648719        0.01648693        0.03297412
        -18.77447447        0.01635347        0.01635320        0.03270667
        -18.71381381        0.01691703        0.01691673        0.03383376
        -18.65315315        0.01709274        0.01709247        0.03418521
        -18.59249249        0.01680305        0.01680278        0.03360583
        -18.53183183        0.01672353        0.01672313        0.03344666
        -18.47117117        0.01754585        0.01754524        0.03509110
        -18.41051051        0.01911821        0.01911748        0.03823569
        -18.34984985        0.02032796        0.02032730        0.04065526
        -18.28918919        0.02152568        0.02152517        0.04305085
        -18.22852853        0.02303976        0.02303930        0.04607906
        -18.16786787        0.02465878        0.02465854        0.04931733
        -18.10720721        0.02345151        0.02345184        0.04690335
        -18.04654655        0.01758362        0.01758422        0.03516784
        -17.98588589        0.01085672        0.01085691        0.02171362
        -17.92522523        0.00724120        0.00724096        0.01448216
        -17.86456456        0.00730689        0.00730680        0.01461370
        -17.80390390        0.00909973        0.00909991        0.01819963
        -17.74324324        0.00900104        0.00900123        0.01800227
        -17.68258258        0.00518402        0.00518413        0.01036815
        -17.62192192        0.00151659        0.00151663        0.00303323
        -17.56126126        0.00021593        0.00021593        0.00043186
        -17.50060060        0.00001478        0.00001478        0.00002956
        -17.43993994        0.00000049        0.00000049        0.00000097
        -17.37927928        0.00000000        0.00000000        0.00000000
        -17.31861862        0.00000005        0.00000005        0.00000011
        -17.25795796        0.00000338        0.00000337        0.00000675
        -17.19729730        0.00007693        0.00007691        0.00015384
        -17.13663664        0.00090899        0.00090887        0.00181786
        -17.07597598        0.00559929        0.00559869        0.01119799
        -17.01531532        0.01815577        0.01815443        0.03631020
        -16.95465465        0.03275620        0.03275460        0.06551080
        -16.89399399        0.03911679        0.03911515        0.07823194
        -16.83333333        0.04199632        0.04199485        0.08399117
        -16.77267267        0.04659909        0.04659859        0.09319768
        -16.71201201        0.04924513        0.04924511        0.09849024
        -16.65135135        0.04936133        0.04936082        0.09872215
        -16.59069069        0.04866796        0.04866688        0.09733484
        -16.53003003        0.04695873        0.04695755        0.09391628
        -16.46936937        0.04438360        0.04438258        0.08876618
        -16.40870871        0.04402059        0.04401965        0.08804024
        -16.34804805        0.04431368        0.04431296        0.08862664
        -16.28738739        0.04198281        0.04198197        0.08396477
        -16.22672673        0.04044164        0.04044011        0.08088174
        -16.16606607        0.04231637        0.04231446        0.08463083
        -16.10540541        0.04523854        0.04523678        0.09047532
        -16.04474474        0.04725857        0.04725684        0.09451541
        -15.98408408        0.04919060        0.04918876        0.09837936
        -15.92342342        0.05438520        0.05438317        0.10876837
        -15.86276276        0.06244405        0.06244177        0.12488582
        -15.80210210        0.06761901        0.06761622        0.13523523
        -15.74144144        0.06954172        0.06953815        0.13907987
        -15.68078078        0.07249550        0.07249151        0.14498702
        -15.62012012        0.07737308        0.07736925        0.15474233
        -15.55945946        0.08030380        0.08030004        0.16060384
        -15.49879880        0.08449512        0.08449056        0.16898569
        -15.43813814        0.09894385        0.09893754        0.19788139
        -15.37747748        0.12210539        0.12209639        0.24420178
        -15.31681682        0.14600517        0.14599527        0.29200044
        -15.25615616        0.15653143        0.15652345        0.31305489
        -15.19549550        0.15866959        0.15866195        0.31733154
        -15.13483483        0.16956888        0.16956103        0.33912992
        -15.07417417        0.18100572        0.18099972        0.36200544
        -15.01351351        0.18330626        0.18330156        0.36660781
        -14.95285285        0.18012313        0.18011809        0.36024122
        -14.89219219        0.17571347        0.17570982        0.35142329
        -14.83153153        0.16919771        0.16919772        0.33839543
        -14.77087087        0.16219124        0.16219238        0.32438362
        -14.71021021        0.15371348        0.15371240        0.30742588
        -14.64954955        0.13965676        0.13965346        0.27931021
        -14.58888889        0.11972597        0.11972291        0.23944888
        -14.52822823        0.09059553        0.09059524        0.18119077
        -14.46756757        0.05041413        0.05041662        0.10083075
        -14.40690691        0.01696552        0.01696773        0.03393325
        -14.34624625        0.00306462        0.00306533        0.00612995
        -14.28558559        0.00028067        0.00028077        0.00056144
        -14.22492492        0.00001522        0.00001522        0.00003044
        -14.16426426        0.00008209        0.00008207        0.00016416
        -14.10360360        0.00124388        0.00124369        0.00248757
        -14.04294294        0.00919175        0.00919072        0.01838247
        -13.98228228        0.03496503        0.03496258        0.06992761
        -13.92162162        0.08033005        0.08032620        0.16065625
        -13.86096096        0.14578746        0.14577881        0.29156626
        -13.80030030        0.22372733        0.22371226        0.44743959
        -13.73963964        0.26517248        0.26515875        0.53033124
        -13.67897898        0.28156188        0.28155055        0.56311243
        -13.61831832        0.31848542        0.31847783        0.63696326
        -13.55765766        0.35008869        0.35008628        0.70017497
        -13.49699700        0.35289490        0.35289101        0.70578591
        -13.43633634        0.34355871        0.34355199        0.68711070
        -13.37567568        0.32420116        0.32419529        0.64839645
        -13.31501502        0.28892654        0.28892221        0.57784876
        -13.25435435        0.26164443        0.26164063        0.52328506
        -13.19369369        0.25622173        0.25621746        0.51243919
        -13.13303303        0.26468990        0.26468434        0.52937424
        -13.07237237        0.26951687        0.26951261        0.53902948
        -13.01171171        0.25043721        0.25043514        0.50087234
        -12.95105105        0.21928640        0.21928396        0.43857035
        -12.89039039        0.20400337        0.20400045        0.40800382
        -12.82972973        0.20335394        0.20335086        0.40670479
        -12.76906907        0.21995859        0.21995347        0.43991206
        -12.70840841        0.25981809        0.25981124        0.51962933
        -12.64774775        0.27929524        0.27928878        0.55858401
        -12.58708709        0.25652374        0.25651777        0.51304151
        -12.52642643        0.23280783        0.23280305        0.46561089
        -12.46576577        0.20909902        0.20909873        0.41819774
        -12.40510511        0.15611895        0.15612260        0.31224155
        -12.34444444        0.09660134        0.09660470        0.19320604
        -12.28378378        0.05875936        0.05876056        0.11751992
        -12.22312312        0.03668914        0.03668845        0.07337759
        -12.16246246        0.03257555        0.03257251        0.06514806
        -12.10180180        0.05262019        0.05261382        0.10523401
        -12.04114114        0.08816895        0.08815812        0.17632706
        -11.98048048        0.14393039        0.14391586        0.28784624
        -11.91981982        0.21684251        0.21682910        0.43367161
        -11.85915916        0.26135572        0.26134751        0.52270324
        -11.79849850        0.26086198        0.26085657        0.52171855
        -11.73783784        0.26242462        0.26241401        0.52483863
        -11.67717718        0.32444858        0.32442659        0.64887517
        -11.61651652        0.41644902        0.41642396        0.83287298
        -11.55585586        0.43542156        0.43540304        0.87082460
        -11.49519520        0.38329425        0.38327844        0.76657269
        -11.43453453        0.33678143        0.33676868        0.67355011
        -11.37387387        0.31468538        0.31467524        0.62936062
        -11.31321321        0.30591694        0.30589405        0.61181099
        -11.25255255        0.31123664        0.31119999        0.62243663
        -11.19189189        0.30912755        0.30910398        0.61823153
        -11.13123123        0.27003888        0.27004314        0.54008202
        -11.07057057        0.21956063        0.21957605        0.43913668
        -11.00990991        0.19346409        0.19347390        0.38693799
        -10.94924925        0.17395632        0.17395800        0.34791432
        -10.88858859        0.15331206        0.15330561        0.30661767
        -10.82792793        0.17677480        0.17674883        0.35352363
        -10.76726727        0.27257614        0.27253022        0.54510635
        -10.70660661        0.39873352        0.39871079        0.79744432
        -10.64594595        0.46800552        0.46801357        0.93601909
        -10.58528529        0.46036730        0.46035201        0.92071931
        -10.52462462        0.43916191        0.43911371        0.87827563
        -10.46396396        0.44807403        0.44802671        0.89610074
        -10.40330330        0.48631280        0.48629477        0.97260757
        -10.34264264        0.54038982        0.54039727        1.08078709
        -10.28198198        0.56663204        0.56664439        1.13327643
        -10.22132132        0.55755087        0.55755067        1.11510155
        -10.16066066        0.51919584        0.51917959        1.03837544
        -10.10000000        0.45719978        0.45717841        0.91437820
        -10.03933934        0.42788847        0.42786354        0.85575201
         -9.97867868        0.47080149        0.47077590        0.94157739
         -9.91801802        0.55955574        0.55954154        1.11909728
         -9.85735736        0.66555875        0.66554115        1.33109990
         -9.79669670        0.77407496        0.77403158        1.54810654
         -9.73603604        0.83946447        0.83940831        1.67887278
         -9.67537538        0.86072604        0.86067979        1.72140583
         -9.61471471        0.88724253        0.88720322        1.77444574
         -9.55405405        0.92791959        0.92787328        1.85579287
         -9.49339339        0.98201848        0.98196341        1.96398189
         -9.43273273        1.04841027        1.04835238        2.09676264
         -9.37207207        1.08282774        1.08278036        2.16560811
         -9.31141141        1.08288516        1.08285044        2.16573560
         -9.25075075        1.09048911        1.09044469        2.18093380
         -9.19009009        1.10804066        1.10797744        2.21601810
         -9.12942943        1.10512211        1.10505055        2.21017266
         -9.06876877        1.07349839        1.07341799        2.14691638
         -9.00810811        1.04058310        1.04049209        2.08107519
         -8.94744745        1.08336795        1.08327423        2.16664218
         -8.88678679        1.20787452        1.20778618        2.41566070
         -8.82612613        1.29778357        1.29770266        2.59548623
         -8.76546547        1.29401961        1.29396143        2.58798104
         -8.70480480        1.27775099        1.27774206        2.55549305
         -8.64414414        1.32697826        1.32702911        2.65400736
         -8.58348348        1.37184451        1.37194459        2.74378910
         -8.52282282        1.32342600        1.32358821        2.64701420
         -8.46216216        1.36028759        1.36077242        2.72106001
         -8.40150150        2.03510686        2.03640757        4.07151443
         -8.34084084        3.52763675        3.52907682        7.05671358
         -8.28018018        4.20200057        4.20157747        8.40357804
         -8.21951952        2.94275301        2.94087862        5.88363163
         -8.15885886        1.53917951        1.53761664        3.07679615
         -8.09819820        1.21511766        1.21346919        2.42858684
         -8.03753754        1.58754066        1.58412056        3.17166122
         -7.97687688        2.26667806        2.26045010        4.52712816
         -7.91621622        2.96191025        2.95296086        5.91487111
         -7.85555556        3.93747118        3.92852688        7.86599805
         -7.79489489        5.24739344        5.24758541       10.49497885
         -7.73423423        6.96756687        6.97968326       13.94725014
         -7.67357357       11.22519569       11.23971294       22.46490863
         -7.61291291       19.13789125       19.14811624       38.28600749
         -7.55225225       27.74886785       27.75172876       55.50059661
         -7.49159159       32.89634668       32.88377297       65.78011965
         -7.43093093       34.65076771       34.61370336       69.26447107
         -7.37027027       37.03305628       36.97973274       74.01278903
         -7.30960961       41.08856706       41.05187506       82.14044212
         -7.24894895       42.11345178       42.12660208       84.24005386
         -7.18828829       33.67838041       33.73112245       67.40950286
         -7.12762763       23.40828733       23.44775281       46.85604013
         -7.06696697       25.06216194       25.06017492       50.12233686
         -7.00630631       34.75589684       34.73779788       69.49369471
         -6.94564565       41.44548482       41.44677308       82.89225790
         -6.88498498       41.90063152       41.90843549       83.80906701
         -6.82432432       39.16465821       39.16504898       78.32970719
         -6.76366366       39.33353691       39.31965801       78.65319492
         -6.70300300       47.08175968       47.04621596       94.12797564
         -6.64234234       57.81290463       57.79361014      115.60651477
         -6.58168168       63.90896506       63.92542150      127.83438656
         -6.52102102       64.24487923       64.27305818      128.51793741
         -6.46036036       61.80560561       61.82520799      123.63081360
         -6.39969970       63.81031139       63.80377764      127.61408903
         -6.33903904       69.93653324       69.91258952      139.84912276
         -6.27837838       72.11151483       72.09638521      144.20790005
         -6.21771772       69.10098204       69.11221937      138.21320140
         -6.15705706       66.22996502       66.24711418      132.47707919