#            ENERGY              s1              s2              total
        -30.30000000        0.00000000        0.00000000        0.00000000
        -30.23933934       -0.00000000       -0.00000000       -0.00000000
        -30.17867868        0.00000005        0.00000005        0.00000010
        -30.11801802        0.00000145        0.00000145        0.00000290
        -30.05735736        0.00002061        0.00002061        0.00004123
        -29.99669670        0.00015869        0.00015869        0.00031738
        -29.93603604        0.00071196        0.00071191        0.00142387
        -29.87537538        0.00194177        0.00194167        0.00388345
        -29.81471471        0.00330292        0.00330281        0.00660573
        -29.75405405        0.00380873        0.00380863        0.00761737
        -29.69339339        0.00361559        0.00361553        0.00723112
        -29.63273273        0.00326863        0.00326866        0.00653730
        -29.57207207        0.00260783        0.00260786        0.00521569
        -29.51141141        0.00188607        0.00188599        0.00377206
        -29.45075075        0.00176385        0.00176373        0.00352758
        -29.39009009        0.00190531        0.00190534        0.00381065
        -29.32942943        0.00167444        0.00167455        0.00334898
        -29.26876877        0.00135222        0.00135224        0.00270446
        -29.20810811        0.00117942        0.00117939        0.00235881
        -29.14744745        0.00084456        0.00084455        0.00168910
        -29.08678679        0.00040448        0.00040448        0.00080896
        -29.02612613        0.00015800        0.00015800        0.00031600
        -28.96546547        0.00009097        0.00009096        0.00018194
        -28.90480480        0.00005950        0.00005950        0.00011900
        -28.84414414        0.00002375        0.00002376        0.00004750
        -28.78348348        0.00000479        0.00000479        0.00000959
        -28.72282282        0.00000047        0.00000047        0.00000094
        -28.66216216        0.00000002        0.00000002        0.00000004
        -28.60150150        0.00000000        0.00000000        0.00000000
        -28.54084084        0.00000000        0.00000000        0.00000000
        -28.48018018        0.00000000        0.00000000        0.00000000
        -28.41951952        0.00000000        0.00000000        0.00000000
        -28.35885886        0.00000000        0.00000000        0.00000000
        -28.29819820        0.00000000        0.00000000        0.00000000
        -28.23753754        0.00000000        0.00000000        0.00000000
        -28.17687688        0.00000000        0.00000000        0.00000000
        -28.11621622        0.00000000        0.00000000        0.00000000
        -28.05555556        0.00000000        0.00000000        0.00000000
        -27.99489489        0.00000000        0.00000000        0.00000000
        -27.93423423        0.00000000        0.00000000        0.00000000
        -27.87357357        0.00000000        0.00000000        0.00000000
        -27.81291291        0.00000000        0.00000000        0.00000000
        -27.75225225        0.00000000        0.00000000        0.00000000
        -27.69159159        0.00000000        0.00000000        0.00000000
        -27.63093093        0.00000000        0.00000000        0.00000000
        -27.57027027        0.00000000        0.00000000        0.00000000
        -27.50960961        0.00000000        0.00000000        0.00000000
        -27.44894895        0.00000000        0.00000000        0.00000000
        -27.38828829        0.00000000        0.00000000        0.00000000
        -27.32762763        0.00000000        0.00000000        0.00000000
        -27.26696697        0.00000000        0.00000000        0.00000000
        -27.20630631        0.00000000        0.00000000        0.00000000
        -27.14564565        0.00000000        0.00000000        0.00000000
        -27.08498498        0.00000000        0.00000000        0.00000000
        -27.02432432        0.00000000        0.00000000        0.00000000
        -26.96366366        0.00000000        0.00000000        0.00000000
        -26.90300300        0.00000000        0.00000000        0.00000000
        -26.84234234        0.00000000        0.00000000        0.00000000
        -26.78168168        0.00000000        0.00000000        0.00000000
        -26.72102102        0.00000000        0.00000000        0.00000000
        -26.66036036        0.00000000        0.00000000        0.00000000
        -26.59969970        0.00000000        0.00000000        0.00000000
        -26.53903904        0.00000000        0.00000000        0.00000000
        -26.47837838        0.00000000        0.00000000        0.00000000
        -26.41771772        0.00000000        0.00000000        0.00000000
        -26.35705706        0.00000000        0.00000000        0.00000000
        -26.29639640        0.00000000        0.00000000        0.00000000
        -26.23573574        0.00000000        0.00000000        0.00000000
        -26.17507508        0.00000000        0.00000000        0.00000000
        -26.11441441        0.00000000        0.00000000        0.00000000
        -26.05375375        0.00000000        0.00000000        0.00000000
        -25.99309309        0.00000000        0.00000000        0.00000000
        -25.93243243        0.00000000        0.00000000        0.00000000
        -25.87177177        0.00000000        0.00000000        0.00000000
        -25.81111111        0.00000000        0.00000000        0.00000000
        -25.75045045        0.00000000        0.00000000        0.00000000
        -25.68978979        0.00000000        0.00000000        0.00000000
        -25.62912913        0.00000000        0.00000000        0.00000000
        -25.56846847        0.00000000        0.00000000        0.00000000
        -25.50780781        0.00000000        0.00000000        0.00000000
        -25.44714715        0.00000000        0.00000000        0.00000000
        -25.38648649        0.00000000        0.00000000        0.00000000
        -25.32582583        0.00000000        0.00000000        0.00000000
        -25.26516517        0.00000000        0.00000000        0.00000000
        -25.20450450        0.00000000        0.00000000        0.00000000
        -25.14384384        0.00000000        0.00000000        0.00000000
        -25.08318318        0.00000000        0.00000000        0.00000000
        -25.02252252        0.00000000        0.00000000        0.00000000
        -24.96186186        0.00000000        0.00000000        0.00000000
        -24.90120120        0.00000000        0.00000000        0.00000000
        -24.84054054        0.00000000        0.00000000        0.00000000
        -24.77987988        0.00000000        0.00000000        0.00000000
        -24.71921922        0.00000000        0.00000000        0.00000000
        -24.65855856        0.00000000        0.00000000        0.00000000
        -24.59789790        0.00000000        0.00000000        0.00000000
        -24.53723724        0.00000000        0.00000000        0.00000000
        -24.47657658        0.00000000        0.00000000        0.00000000
        -24.41591592        0.00000000        0.00000000        0.00000000
        -24.35525526        0.00000000        0.00000000        0.00000000
        -24.29459459        0.00000000        0.00000000        0.00000000
        -24.23393393        0.00000000        0.00000000        0.00000000
        -24.17327327        0.00000000        0.00000000        0.00000000
        -24.11261261        0.00000000        0.00000000        0.00000000
        -24.05195195        0.00000000        0.00000000        0.00000000
        -23.99129129        0.00000000        0.00000000        0.00000000
        -23.93063063        0.00000000        0.00000000        0.00000000
        -23.86996997        0.00000000        0.00000000        0.00000000
        -23.80930931        0.00000000        0.00000000        0.00000000
        -23.74864865        0.00000000        0.00000000        0.00000000
        -23.68798799        0.00000000        0.00000000        0.00000000
        -23.62732733        0.00000000        0.00000000        0.00000000
        -23.56666667        0.00000000        0.00000000        0.00000000
        -23.50600601        0.00000000        0.00000000        0.00000000
        -23.44534535        0.00000000        0.00000000        0.00000000
        -23.38468468        0.00000000        0.00000000        0.00000000
        -23.32402402        0.00000000        0.00000000        0.00000000
        -23.26336336        0.00000000        0.00000000        0.00000000
        -23.20270270        0.00000000        0.00000000        0.00000000
        -23.14204204        0.00000000        0.00000000        0.00000000
        -23.08138138        0.00000000        0.00000000        0.00000000
        -23.02072072        0.00000000        0.00000000        0.00000000
        -22.96006006        0.00000000        0.00000000        0.00000000
        -22.89939940        0.00000000        0.00000000        0.00000000
        -22.83873874        0.00000000        0.00000000        0.00000000
        -22.77807808        0.00000000        0.00000000        0.00000000
        -22.71741742        0.00000000        0.00000000        0.00000000
        -22.65675676        0.00000000        0.00000000        0.00000000
        -22.59609610        0.00000000        0.00000000        0.00000000
        -22.53543544        0.00000000        0.00000000        0.00000000
        -22.47477477        0.00000000        0.00000000        0.00000000
        -22.41411411        0.00000000        0.00000000        0.00000000
        -22.35345345        0.00000000        0.00000000        0.00000000
        -22.29279279        0.00000000        0.00000000        0.00000000
        -22.23213213        0.00000000        0.00000000        0.00000000
        -22.17147147        0.00000000        0.00000000        0.00000000
        -22.11081081        0.00000000        0.00000000        0.00000000
        -22.05015015        0.00000000        0.00000000        0.00000000
        -21.98948949        0.00000000        0.00000000        0.00000000
        -21.92882883        0.00000000        0.00000000        0.00000000
        -21.86816817        0.00000000        0.00000000        0.00000000
        -21.80750751        0.00000000        0.00000000        0.00000000
        -21.74684685        0.00000000        0.00000000        0.00000000
        -21.68618619        0.00000000        0.00000000        0.00000000
        -21.62552553        0.00000000        0.00000000        0.00000000
        -21.56486486        0.00000000        0.00000000        0.00000000
        -21.50420420        0.00000000        0.00000000        0.00000000
        -21.44354354        0.00000000        0.00000000        0.00000000
        -21.38288288        0.00000000        0.00000000        0.00000000
        -21.32222222        0.00000000        0.00000000        0.00000000
        -21.26156156        0.00000000        0.00000000        0.00000000
        -21.20090090        0.00000000        0.00000000        0.00000000
        -21.14024024        0.00000000        0.00000000        0.00000000
        -21.07957958        0.00000000        0.00000000        0.00000000
        -21.01891892        0.00000000        0.00000000        0.00000000
        -20.95825826        0.00000000        0.00000000        0.00000000
        -20.89759760        0.00000000        0.00000000        0.00000000
        -20.83693694        0.00000000        0.00000000        0.00000000
        -20.77627628        0.00000000        0.00000000        0.00000000
        -20.71561562        0.00000000        0.00000000        0.00000000
        -20.65495495        0.00000004        0.00000004        0.00000008
        -20.59429429        0.00000094        0.00000094        0.00000187
        -20.53363363        0.00001126        0.00001126        0.00002252
        -20.47297297        0.00008564        0.00008562        0.00017126
        -20.41231231        0.00039070        0.00039063        0.00078133
        -20.35165165        0.00102314        0.00102304        0.00204618
        -20.29099099        0.00158404        0.00158398        0.00316801
        -20.23033033        0.00167458        0.00167455        0.00334913
        -20.16966967        0.00156657        0.00156655        0.00313312
        -20.10900901        0.00153852        0.00153852        0.00307704
        -20.04834835        0.00159270        0.00159269        0.00318539
        -19.98768769        0.00163333        0.00163330        0.00326663
        -19.92702703        0.00156318        0.00156314        0.00312632
        -19.86636637        0.00153427        0.00153422        0.00306848
        -19.80570571        0.00156814        0.00156811        0.00313626
        -19.74504505        0.00146331        0.00146330        0.00292660
        -19.68438438        0.00125060        0.00125059        0.00250119
        -19.62372372        0.00113067        0.00113064        0.00226131
        -19.56306306        0.00110206        0.00110204        0.00220410
        -19.50240240        0.00109347        0.00109345        0.00218692
        -19.44174174        0.00111501        0.00111499        0.00223001
        -19.38108108        0.00115620        0.00115618        0.00231238
        -19.32042042        0.00116974        0.00116971        0.00233945
        -19.25975976        0.00114758        0.00114755        0.00229514
        -19.19909910        0.00110273        0.00110270        0.00220543
        -19.13843844        0.00102985        0.00102982        0.00205967
        -19.07777778        0.00102347        0.00102344        0.00204691
        -19.01711712        0.00112250        0.00112246        0.00224496
        -18.95645646        0.00118690        0.00118687        0.00237377
        -18.89579580        0.00113336        0.00113334        0.00226670
        -18.83513514        0.00103873        0.00103871        0.00207745
        -18.77447447        0.00098529        0.00098528        0.00197057
        -18.71381381        0.00097360        0.00097358        0.00194719
        -18.65315315        0.00096251        0.00096249        0.00192500
        -18.59249249        0.00096023        0.00096021        0.00192045
        -18.53183183        0.00097433        0.00097430        0.00194862
        -18.47117117        0.00103096        0.00103092        0.00206188
        -18.41051051        0.00113508        0.00113502        0.00227010
        -18.34984985        0.00122758        0.00122753        0.00245511
        -18.28918919        0.00128845        0.00128841        0.00257686
        -18.22852853        0.00130585        0.00130581        0.00261166
        -18.16786787        0.00132682        0.00132679        0.00265360
        -18.10720721        0.00129686        0.00129686        0.00259372
        -18.04654655        0.00110281        0.00110282        0.00220563
        -17.98588589        0.00078227        0.00078226        0.00156453
        -17.92522523        0.00052740        0.00052737        0.00105477
        -17.86456456        0.00057716        0.00057714        0.00115429
        -17.80390390        0.00091815        0.00091815        0.00183630
        -17.74324324        0.00104138        0.00104139        0.00208277
        -17.68258258        0.00062707        0.00062708        0.00125415
        -17.62192192        0.00018570        0.00018571        0.00037141
        -17.56126126        0.00002652        0.00002652        0.00005305
        -17.50060060        0.00000182        0.00000182        0.00000364
        -17.43993994        0.00000006        0.00000006        0.00000012
        -17.37927928        0.00000000        0.00000000        0.00000000
        -17.31861862        0.00000000        0.00000000        0.00000001
        -17.25795796        0.00000029        0.00000029        0.00000058
        -17.19729730        0.00000691        0.00000691        0.00001381
        -17.13663664        0.00008490        0.00008489        0.00016979
        -17.07597598        0.00054338        0.00054331        0.00108669
        -17.01531532        0.00183519        0.00183500        0.00367019
        -16.95465465        0.00343928        0.00343899        0.00687827
        -16.89399399        0.00401657        0.00401630        0.00803286
        -16.83333333        0.00359810        0.00359795        0.00719605
        -16.77267267        0.00319843        0.00319838        0.00639681
        -16.71201201        0.00315930        0.00315927        0.00631857
        -16.65135135        0.00331235        0.00331228        0.00662462
        -16.59069069        0.00352008        0.00351995        0.00704003
        -16.53003003        0.00354544        0.00354530        0.00709075
        -16.46936937        0.00331822        0.00331807        0.00663629
        -16.40870871        0.00328787        0.00328771        0.00657559
        -16.34804805        0.00342651        0.00342636        0.00685287
        -16.28738739        0.00334144        0.00334130        0.00668274
        -16.22672673        0.00330214        0.00330194        0.00660408
        -16.16606607        0.00361541        0.00361517        0.00723058
        -16.10540541        0.00399058        0.00399038        0.00798096
        -16.04474474        0.00414462        0.00414443        0.00828905
        -15.98408408        0.00425394        0.00425372        0.00850766
        -15.92342342        0.00458335        0.00458310        0.00916646
        -15.86276276        0.00512372        0.00512345        0.01024717
        -15.80210210        0.00563331        0.00563303        0.01126634
        -15.74144144        0.00583088        0.00583059        0.01166147
        -15.68078078        0.00587831        0.00587801        0.01175631
        -15.62012012        0.00616085        0.00616051        0.01232136
        -15.55945946        0.00632450        0.00632416        0.01264866
        -15.49879880        0.00623756        0.00623718        0.01247474
        -15.43813814        0.00659211        0.00659166        0.01318377
        -15.37747748        0.00726436        0.00726380        0.01452816
        -15.31681682        0.00796739        0.00796678        0.01593417
        -15.25615616        0.00856011        0.00855949        0.01711960
        -15.19549550        0.00907088        0.00907025        0.01814113
        -15.13483483        0.00959454        0.00959395        0.01918850
        -15.07417417        0.00975230        0.00975186        0.01950415
        -15.01351351        0.00961380        0.00961343        0.01922724
        -14.95285285        0.00946955        0.00946914        0.01893869
        -14.89219219        0.00959714        0.00959674        0.01919388
        -14.83153153        0.00995253        0.00995228        0.01990480
        -14.77087087        0.00994552        0.00994540        0.01989092
        -14.71021021        0.00923496        0.00923481        0.01846977
        -14.64954955        0.00800284        0.00800255        0.01600539
        -14.58888889        0.00647796        0.00647761        0.01295556
        -14.52822823        0.00467624        0.00467605        0.00935229
        -14.46756757        0.00255735        0.00255739        0.00511474
        -14.40690691        0.00086440        0.00086449        0.00172889
        -14.34624625        0.00015808        0.00015811        0.00031619
        -14.28558559        0.00001467        0.00001467        0.00002934
        -14.22492492        0.00000135        0.00000135        0.00000270
        -14.16426426        0.00002146        0.00002146        0.00004292
        -14.10360360        0.00032310        0.00032305        0.00064615
        -14.04294294        0.00235180        0.00235155        0.00470336
        -13.98228228        0.00852768        0.00852718        0.01705486
        -13.92162162        0.01718042        0.01718002        0.03436044
        -13.86096096        0.02535055        0.02534978        0.05070033
        -13.80030030        0.03424763        0.03424566        0.06849329
        -13.73963964        0.03880730        0.03880502        0.07761231
        -13.67897898        0.03964685        0.03964437        0.07929122
        -13.61831832        0.04499014        0.04498761        0.08997775
        -13.55765766        0.05200764        0.05200592        0.10401356
        -13.49699700        0.05388693        0.05388551        0.10777243
        -13.43633634        0.05116698        0.05116542        0.10233240
        -13.37567568        0.04556985        0.04556859        0.09113845
        -13.31501502        0.03747561        0.03747474        0.07495035
        -13.25435435        0.03151109        0.03151028        0.06302137
        -13.19369369        0.03058282        0.03058192        0.06116474
        -13.13303303        0.03302055        0.03301945        0.06604000
        -13.07237237        0.03467784        0.03467705        0.06935489
        -13.01171171        0.03196104        0.03196074        0.06392178
        -12.95105105        0.02734174        0.02734132        0.05468306
        -12.89039039        0.02554262        0.02554192        0.05108454
        -12.82972973        0.02593406        0.02593334        0.05186740
        -12.76906907        0.02718376        0.02718296        0.05436672
        -12.70840841        0.03023344        0.03023242        0.06046586
        -12.64774775        0.03186216        0.03186085        0.06372301
        -12.58708709        0.03036701        0.03036534        0.06073235
        -12.52642643        0.02969225        0.02969057        0.05938282
        -12.46576577        0.02788315        0.02788229        0.05576544
        -12.40510511        0.02030896        0.02030899        0.04061795
        -12.34444444        0.01153811        0.01153835        0.02307647
        -12.28378378        0.00657683        0.00657690        0.01315373
        -12.22312312        0.00433246        0.00433233        0.00866479
        -12.16246246        0.00466484        0.00466436        0.00932920
        -12.10180180        0.00845203        0.00845098        0.01690302
        -12.04114114        0.01470125        0.01469935        0.02940060
        -11.98048048        0.02426433        0.02426165        0.04852598
        -11.91981982        0.03561771        0.03561508        0.07123279
        -11.85915916        0.04008835        0.04008655        0.08017490
        -11.79849850        0.03641417        0.03641309        0.07282725
        -11.73783784        0.03491050        0.03490887        0.06981937
        -11.67717718        0.04563361        0.04562990        0.09126351
        -11.61651652        0.06389524        0.06389023        0.12778547
        -11.55585586        0.07257578        0.07257183        0.14514761
        -11.49519520        0.06766139        0.06765914        0.13532052
        -11.43453453        0.05821083        0.05820974        0.11642057
        -11.37387387        0.05172749        0.05172630        0.10345379
        -11.31321321        0.05142298        0.05141908        0.10284206
        -11.25255255        0.05534757        0.05534098        0.11068855
        -11.19189189        0.05610049        0.05609555        0.11219604
        -11.13123123        0.04836741        0.04836688        0.09673429
        -11.07057057        0.03922844        0.03923018        0.07845862
        -11.00990991        0.03587116        0.03587211        0.07174327
        -10.94924925        0.03330155        0.03330080        0.06660235
        -10.88858859        0.03086528        0.03086265        0.06172792
        -10.82792793        0.03984463        0.03983711        0.07968174
        -10.76726727        0.06748932        0.06747722        0.13496654
        -10.70660661        0.09856514        0.09856069        0.19712583
        -10.64594595        0.10618008        0.10618511        0.21236518
        -10.58528529        0.09436875        0.09436810        0.18873685
        -10.52462462        0.08654840        0.08653867        0.17308707
        -10.46396396        0.08965904        0.08964820        0.17930724
        -10.40330330        0.09975277        0.09974771        0.19950048
        -10.34264264        0.11381308        0.11381344        0.22762651
        -10.28198198        0.12188450        0.12188617        0.24377067
        -10.22132132        0.11908468        0.11908420        0.23816888
        -10.16066066        0.10827270        0.10826894        0.21654164
        -10.10000000        0.09464443        0.09463904        0.18928347
        -10.03933934        0.08925914        0.08925207        0.17851121
         -9.97867868        0.10265369        0.10264561        0.20529930
         -9.91801802        0.13019517        0.13018882        0.26038399
         -9.85735736        0.16198104        0.16197233        0.32395337
         -9.79669670        0.19337717        0.19336098        0.38673815
         -9.73603604        0.21440751        0.21438813        0.42879564
         -9.67537538        0.22727936        0.22726301        0.45454237
         -9.61471471        0.24082517        0.24081183        0.48163700
         -9.55405405        0.25216058        0.25214525        0.50430583
         -9.49339339        0.26880433        0.26878386        0.53758819
         -9.43273273        0.30041957        0.30039655        0.60081612
         -9.37207207        0.32998991        0.32997190        0.65996182
         -9.31141141        0.34268672        0.34267681        0.68536353
         -9.25075075        0.35061735        0.35060771        0.70122506
         -9.19009009        0.36352755        0.36351271        0.72704027
         -9.12942943        0.36932276        0.36930410        0.73862685
         -9.06876877        0.36555926        0.36553435        0.73109361
         -9.00810811        0.36578125        0.36574825        0.73152950
         -8.94744745        0.39120193        0.39116406        0.78236599
         -8.88678679        0.44064899        0.44060969        0.88125868
         -8.82612613        0.47381714        0.47377971        0.94759685
         -8.76546547        0.46648730        0.46645583        0.93294313
         -8.70480480        0.44962492        0.44960026        0.89922518
         -8.64414414        0.45172199        0.45170364        0.90342563
         -8.58348348        0.44803894        0.44803232        0.89607127
         -8.52282282        0.41873219        0.41874268        0.83747487
         -8.46216216        0.39776397        0.39782656        0.79559053
         -8.40150150        0.46369784        0.46389325        0.92759109
         -8.34084084        0.64873949        0.64898898        1.29772847
         -8.28018018        0.72446835        0.72446783        1.44893618
         -8.21951952        0.53258324        0.53234642        1.06492965
         -8.15885886        0.34631080        0.34608135        0.69239216
         -8.09819820        0.35297984        0.35270040        0.70568024
         -8.03753754        0.50225721        0.50162319        1.00388040
         -7.97687688        0.73117434        0.72995133        1.46112566
         -7.91621622        0.95347816        0.95160895        1.90508711
         -7.85555556        1.27785736        1.27588221        2.55373957
         -7.79489489        1.95928115        1.95941913        3.91870028
         -7.73423423        3.67472266        3.67836024        7.35308291
         -7.67357357        7.92126568        7.92699606       15.84826174
         -7.61291291       14.96868617       14.97420034       29.94288651
         -7.55225225       22.12300038       22.12436523       44.24736560
         -7.49159159       25.75482377       25.74413147       51.49895523
         -7.43093093       26.24810347       26.21793799       52.46604145
         -7.37027027       28.06267897       28.01975923       56.08243819
         -7.30960961       32.52881125       32.49889890       65.02771015
         -7.24894895       34.91183227       34.92161287       69.83344514
         -7.18828829       28.81458614       28.85734253       57.67192867
         -7.12762763       20.53391253       20.56632723       41.10023976
         -7.06696697       22.30839668       22.30536773       44.61376441
         -7.00630631       30.85794006       30.84109384       61.69903391
         -6.94564565       36.41955051       36.42100738       72.84055789
         -6.88498498       36.62613990       36.63438133       73.26052123
         -6.82432432       34.65639086       34.65756773       69.31395859
         -6.76366366       35.53194149       35.51900757       71.05094906
         -6.70300300       43.04405224       43.01125993       86.05531217
         -6.64234234       53.44327218       53.42559916      106.86887134
         -6.58168168       60.07631904       60.09096207      120.16728111
         -6.52102102       61.21007861       61.23534510      122.44542371
         -6.46036036       59.28314160       59.30053995      118.58368155
         -6.39969970       61.51386367       61.50691711      123.02078078
         -6.33903904       67.52994938       67.50749402      135.03744340
         -6.27837838       69.43551325       69.42216837      138.85768162
         -6.21771772       66.44731785       66.45840057      132.90571842
         -6.15705706       64.01554709       64.03113432      128.04668141