Siesta Version:                                        siesta-3.1
Architecture  : x86_64-unknown-linux-gnu--Intel
Compiler flags: mpif90 -O3 -xSSSE3 -axSSE4.2,SSE4.1 -ip
PARALLEL version
NetCDF support

* Running on   64 nodes in parallel
>> Start of run:  10-MAY-2012  17:42:52

                           ***********************       
                           *  WELCOME TO SIESTA  *       
                           ***********************       

reinit: Reading from standard input
************************** Dump of input data file ****************************
SystemName      optical
SystemLabel     optical
NumberOfAtoms   32
NumberOfSpecies 1
MD.TypeOfRun    CG
MD.NumCGsteps   0
MD.ConstantVolume  .true.
SolutionMethod  diagon
XC.functional   GGA
XC.authors      PBE
PAO.BasisSize   DZP
DM.NumberPulay  7
DM.MixingWeight 0.1
DirectPhi       .true.
SaveMemory      .true.
MeshCutoff      500 Ry
MaxSCFiterations 200
UseSaveData     .true.
WriteMullikenPop 1
OpticalCalculation      .true.
%block Optical.Mesh
 1 1 1
%endblock Optical.Mesh
Optical.PolarizationType  polarized
%block Optical.Vector
 1.0 0.0 0.0
%endblock Optical.Vector
Optical.Broaden         0.05 eV
Optical.EnergyMinimum   0.001 eV
Optical.EnergyMaximum   100.0 eV
%block ChemicalSpeciesLabel
 1  47   Ag
%endblock ChemicalSpeciesLabel
LatticeConstant 1.0 Ang
%block LatticeParameters
  22.534   24.472   23.649   90.0 90.0 90.0
%endblock LatticeParameters
AtomicCoordinatesFormat Ang
%block AtomicCoordinatesAndAtomicSpecies < struct.coor
%endblock AtomicCoordinatesAndAtomicSpecies
************************** End of input data file *****************************

reinit: -----------------------------------------------------------------------
reinit: System Name: optical
reinit: -----------------------------------------------------------------------
reinit: System Label: optical                                                     
reinit: -----------------------------------------------------------------------

initatom: Reading input for the pseudopotentials and atomic orbitals ----------
 Species number:            1  Label: Ag Atomic number:          47
Ground state valence configuration:   5s01  4d10
Reading pseudopotential information in formatted form from Ag.psf

Valence configuration for pseudopotential generation:
5s( 1.00) rc: 2.52
5p( 0.00) rc: 2.72
4d(10.00) rc: 2.52
4f( 0.00) rc: 2.52
For Ag, standard SIESTA heuristics set lmxkb to 3
 (one more than the basis l, including polarization orbitals).
Use PS.lmax or PS.KBprojectors blocks to override.

<basis_specs>
===============================================================================
Ag                   Z=  47    Mass=  107.87        Charge= 0.17977+309
Lmxo=2 Lmxkb= 3    BasisType=split      Semic=F
L=0  Nsemic=0  Cnfigmx=5
          n=1  nzeta=2  polorb=1
            splnorm:   0.15000    
               vcte:    0.0000    
               rinn:    0.0000    
                rcs:    0.0000      0.0000    
            lambdas:    1.0000      1.0000    
L=1  Nsemic=0  Cnfigmx=5
L=2  Nsemic=0  Cnfigmx=4
          n=1  nzeta=2  polorb=0
            splnorm:   0.15000    
               vcte:    0.0000    
               rinn:    0.0000    
                rcs:    0.0000      0.0000    
            lambdas:    1.0000      1.0000    
-------------------------------------------------------------------------------
L=0  Nkbl=1  erefs: 0.17977+309
L=1  Nkbl=1  erefs: 0.17977+309
L=2  Nkbl=1  erefs: 0.17977+309
L=3  Nkbl=1  erefs: 0.17977+309
===============================================================================
</basis_specs>

atom: Called for Ag                    (Z =  47)

read_vps: Pseudopotential generation method:
read_vps: ATM 3.2.2 Troullier-Martins                       
Total valence charge:   11.00000

xc_check: Exchange-correlation functional:
xc_check: GGA Perdew, Burke & Ernzerhof 1996
V l=0 = -2*Zval/r beyond r=  2.4592
V l=1 = -2*Zval/r beyond r=  2.6507
V l=2 = -2*Zval/r beyond r=  2.4592
V l=3 = -2*Zval/r beyond r=  2.4592
All V_l potentials equal beyond r=  2.6507
This should be close to max(r_c) in ps generation
All pots = -2*Zval/r beyond r=  2.6507

VLOCAL1: 99.0% of the norm of Vloc inside      6.178 Ry
VLOCAL1: 99.9% of the norm of Vloc inside     14.079 Ry
atom: Maximum radius for 4*pi*r*r*local-pseudopot. charge    3.19739
atom: Maximum radius for r*vlocal+2*Zval:    2.82168
GHOST: No ghost state for L =  0
GHOST: No ghost state for L =  1
GHOST: No ghost state for L =  2
GHOST: No ghost state for L =  3

KBgen: Kleinman-Bylander projectors: 
   l= 0   rc=  2.966357   el= -0.323666   Ekb=  3.565490   kbcos=  0.247453
   l= 1   rc=  3.003670   el= -0.054265   Ekb=  1.619308   kbcos=  0.223076
   l= 2   rc=  2.786631   el= -0.547066   Ekb= -7.840816   kbcos= -0.714112
   l= 3   rc=  3.079709   el=  0.002953   Ekb= -2.732950   kbcos= -0.012571

KBgen: Total number of  Kleinman-Bylander projectors:   16
atom: -------------------------------------------------------------------------

atom: SANKEY-TYPE ORBITALS:
atom: Selected multiple-zeta basis: split     

SPLIT: Orbitals with angular momentum L= 0

SPLIT: Basis orbitals for state 5s

SPLIT: PAO cut-off radius determined from an
SPLIT: energy shift=  0.020000 Ry

   izeta = 1
                 lambda =    1.000000
                     rc =    6.684855
                 energy =   -0.305483
                kinetic =    0.327133
    potential(screened) =   -0.632616
       potential(ionic) =   -8.088030

   izeta = 2
                 rmatch =    6.279837
              splitnorm =    0.150000
                 energy =   -0.253539
                kinetic =    0.499634
    potential(screened) =   -0.753173
       potential(ionic) =   -8.691029

SPLIT: Orbitals with angular momentum L= 2

SPLIT: Basis orbitals for state 4d

SPLIT: PAO cut-off radius determined from an
SPLIT: energy shift=  0.020000 Ry

   izeta = 1
                 lambda =    1.000000
                     rc =    3.954440
                 energy =   -0.527442
                kinetic =    6.210364
    potential(screened) =   -6.737807
       potential(ionic) =  -18.733043

   izeta = 2
                 rmatch =    2.490121
              splitnorm =    0.150000
                 energy =   -0.148928
                kinetic =    8.576261
    potential(screened) =   -8.725189
       potential(ionic) =  -21.658221

POLgen: Perturbative polarization orbital with L=  1

POLgen: Polarization orbital for state 5s

   izeta = 1
                     rc =    6.684855
                 energy =   -0.001728
                kinetic =    0.597115
    potential(screened) =   -0.598843
       potential(ionic) =   -7.554613
atom: Total number of Sankey-type orbitals: 15

atm_pop: Valence configuration (for local Pseudopot. screening):
 5s( 1.00)                                                            
 5p( 0.00)                                                            
 4d(10.00)                                                            
Vna: chval, zval:   11.00000  11.00000

Vna:  Cut-off radius for the neutral-atom potential:   6.684855

atom: _________________________________________________________________________

prinput: Basis input ----------------------------------------------------------

PAO.BasisType split     

%block ChemicalSpeciesLabel
    1   47 Ag                      # Species index, atomic number, species label
%endblock ChemicalSpeciesLabel

%block PAO.Basis                 # Define Basis set
Ag                    2                    # Species label, number of l-shells
 n=5   0   2 P   1                   # n, l, Nzeta, Polarization, NzetaPol
   6.685      6.280   
   1.000      1.000   
 n=4   2   2                         # n, l, Nzeta 
   3.954      2.490   
   1.000      1.000   
%endblock PAO.Basis

prinput: ----------------------------------------------------------------------

Dumping basis to NetCDF file Ag.ion.nc
coor:   Atomic-coordinates input format  =     Cartesian coordinates
coor:                                          (in Angstroms)

siesta: WARNING: XV file not found

siesta: Atomic coordinates (Bohr) and species
siesta:     18.97286  32.99463   3.15584  1        1
siesta:     24.43228  32.99463   3.15584  1        2
siesta:     13.51344  32.99463   3.15584  1        3
siesta:     21.70351  37.72273   3.15584  1        4
siesta:     21.70351  28.26653   3.15584  1        5
siesta:     16.24220  37.72273   3.15584  1        6
siesta:     16.24220  28.26653   3.15584  1        7
siesta:     18.97286  36.14670   7.61371  1        8
siesta:     18.97286  26.69050   7.61371  1        9
siesta:     21.70351  31.41860   7.61371  1       10
siesta:     16.24220  31.41860   7.61371  1       11
siesta:     24.43228  36.14670   7.61371  1       12
siesta:     13.51344  36.14670   7.61371  1       13
siesta:     21.70351  23.23230  24.35480  1       14
siesta:     16.24220  23.23230  24.35480  1       15
siesta:     18.97286  18.50421  24.35480  1       16
siesta:     18.97286  27.96040  24.35480  1       17
siesta:     13.51344  18.50421  24.35480  1       18
siesta:     24.43228  18.50421  24.35480  1       19
siesta:     24.43228  21.65627  28.81267  1       20
siesta:     13.51344  21.65627  28.81267  1       21
siesta:     21.70351  26.38437  28.81267  1       22
siesta:     21.70351  16.92817  28.81267  1       23
siesta:     16.24220  26.38437  28.81267  1       24
siesta:     16.24220  16.92817  28.81267  1       25
siesta:     18.97286  21.65627  28.81267  1       26
siesta:     18.97286  24.80833  33.27053  1       27
siesta:     18.97286  15.35214  33.27053  1       28
siesta:     21.70351  20.08024  33.27053  1       29
siesta:     16.24220  20.08024  33.27053  1       30
siesta:     24.43228  24.80833  33.27053  1       31
siesta:     13.51344  24.80833  33.27053  1       32

siesta: System type = molecule  

initatomlists: Number of atoms, orbitals, and projectors:     32   480   512

siesta: ******************** Simulation parameters ****************************
siesta:
siesta: The following are some of the parameters of the simulation.
siesta: A complete list of the parameters used, including default values,
siesta: can be found in file out.fdf
siesta:
redata: Non-Collinear-spin run           =     F
redata: SpinPolarized (Up/Down) run      =     F
redata: Number of spin components        =     1
redata: Long output                      =     F
redata: Number of Atomic Species         =        1
redata: Charge density info will appear in .RHO file
redata: Write Mulliken Pop.              =     Atomic and Orbital charges
redata: Mesh Cutoff                      =   500.0000  Ry
redata: Net charge of the system         =     0.0000 |e|
redata: Max. number of SCF Iter          =      200
redata: Performing Pulay mixing using    =     7 iterations
redata: Mix DM in first SCF step ?       =     F
redata: Write Pulay info on disk?        =     F
redata: Discard 1st Pulay DM after  kick =     F
redata: New DM Mixing Weight             =     0.1000
redata: New DM Occupancy tolerance       = 0.000000000001
redata: No kicks to SCF
redata: DM Mixing Weight for Kicks       =     0.5000
redata: DM Tolerance for SCF             =     0.000100
redata: Require Energy convergence for SCF =     F
redata: DM Energy tolerance for SCF      =     0.000100 eV
redata: Require Harris convergence for SCF =     F
redata: DM Harris energy tolerance for SCF =     0.000100 eV
redata: Using Saved Data (generic)   =     T
redata: Use continuation files for DM    =     T
redata: Neglect nonoverlap interactions  =     F
redata: Method of Calculation            =     Diagonalization
redata: Divide and Conquer               =     T
redata: Electronic Temperature           =     0.0019  Ry
redata: Fix the spin of the system       =     F
redata: Dynamics option                  =     CG coord. optimization
redata: Variable cell                    =     F
redata: Use continuation files for CG    =     T
redata: Max atomic displ per move        =     0.2000  Bohr
redata: Maximum number of CG moves       =        0
redata: Force tolerance                  =     0.0016  Ry/Bohr
redata: ***********************************************************************
Total number of electrons:   352.000000
Total ionic charge:   352.000000

* ProcessorY, Blocksize:    8   8

 Kpoints in:            1 . Kpoints trimmed:            1

siesta: k-grid: Number of k-points =     1
siesta: k-grid: Cutoff (effective) =    11.267 Ang
siesta: k-grid: Supercell and displacements
siesta: k-grid:    1   0   0      0.000
siesta: k-grid:    0   1   0      0.000
siesta: k-grid:    0   0   1      0.000

* Maximum dynamic memory allocated =     1 MB

siesta:                 ==============================
                            Begin CG move =      0
                        ==============================

outcell: Unit cell vectors (Ang):
       22.534000    0.000000    0.000000
        0.000000   24.472000    0.000000
        0.000000    0.000000   23.649000

outcell: Cell vector modules (Ang)   :   22.534000   24.472000   23.649000
outcell: Cell angles (23,13,12) (deg):     90.0000     90.0000     90.0000
outcell: Cell volume (Ang**3)        :  13041.2895
New_DM. Step:     1
Initializing Density Matrix...

InitMesh: MESH =   320 x   360 x   320 =    36864000
InitMesh: Mesh cutoff (required, used) =   500.000   506.030 Ry

* Maximum dynamic memory allocated =    80 MB

stepf: Fermi-Dirac step function

siesta: Program's energy decomposition (eV):
siesta: Ebs     =     -1317.495975
siesta: Eions   =     35531.607510
siesta: Ena     =       314.489247
siesta: Ekin    =     27181.985408
siesta: Enl     =    -18115.277726
siesta: DEna    =        -0.000262
siesta: DUscf   =         0.000000
siesta: DUext   =         0.000000
siesta: Exc     =     -5190.370490
siesta: eta*DQ  =         0.000000
siesta: Emadel  =         0.000000
siesta: Emeta   =         0.000000
siesta: Emolmec =         0.000000
siesta: Ekinion =         0.000000
siesta: Eharris =    -31462.622216
siesta: Etot    =    -31340.781333
siesta: FreeEng =    -31340.781333

siesta: iscf   Eharris(eV)      E_KS(eV)   FreeEng(eV)   dDmax  Ef(eV)
siesta:    1   -31462.6222   -31340.7813   -31340.7813  0.6925 -1.5518
timer: Routine,Calls,Time,% = IterSCF        1     733.848  89.46
elaps: Routine,Calls,Wall,% = IterSCF        1      11.472  89.26
siesta:    2   -31497.3915   -31377.8558   -31377.9039  0.8638 -4.4678
siesta:    3   -31430.8749   -31384.3292   -31384.4244  0.4883 -3.4350
siesta:    4   -31429.3692   -31387.0975   -31387.1595  0.4660 -3.2380
siesta:    5   -31428.7951   -31390.5849   -31390.6076  0.3399 -3.0954
siesta:    6   -31429.5173   -31418.0756   -31418.0885  0.1060 -2.6147
siesta:    7   -31428.2902   -31423.1266   -31423.1274  0.0775 -2.8099
siesta:    8   -31428.1740   -31426.0713   -31426.1055  0.0703 -2.8146
siesta:    9   -31428.1290   -31426.3355   -31426.3972  0.0357 -2.7934
siesta:   10   -31428.1383   -31426.8822   -31426.9575  0.0511 -2.8097
siesta:   11   -31428.1178   -31427.3027   -31427.3711  0.0200 -2.8020
siesta:   12   -31428.1158   -31427.5889   -31427.6641  0.0050 -2.8013
siesta:   13   -31428.1161   -31427.7545   -31427.8296  0.0016 -2.8004
siesta:   14   -31428.1159   -31427.8859   -31427.9606  0.0012 -2.7993
siesta:   15   -31427.7866   -31428.0680   -31428.1427  1.0470 -2.8031
siesta:   16   -31428.1160   -31428.0571   -31428.1306  0.0005 -2.7987
siesta:   17   -31427.7866   -31428.0657   -31428.1403  1.0469 -2.8032
siesta:   18   -31427.7866   -31428.0623   -31428.1357  1.0466 -2.8033
siesta:   19   -31428.1160   -31428.0649   -31428.1384  0.0004 -2.7988
siesta:   20   -31427.7867   -31428.1059   -31428.1805  1.0466 -2.8034
siesta:   21   -31427.7867   -31428.0995   -31428.1729  1.0465 -2.8035
siesta:   22   -31427.7866   -31428.1066   -31428.1801  1.0465 -2.8035
siesta:   23   -31427.7866   -31428.0869   -31428.1604  1.0461 -2.8035
siesta:   24   -31427.7866   -31428.0966   -31428.1701  1.0465 -2.8034
siesta:   25   -31427.7866   -31428.0921   -31428.1656  1.0463 -2.8034
siesta:   26   -31427.7866   -31428.0633   -31428.1368  1.0462 -2.8033
siesta:   27   -31428.1407   -31427.9373   -31428.0108  0.0970 -2.8182
siesta:   28   -31428.1180   -31426.8234   -31426.8871  0.1005 -2.8064
siesta:   29   -31428.1163   -31427.2895   -31427.3651  0.0894 -2.8042
siesta:   30   -31428.1158   -31427.8674   -31427.9424  0.0709 -2.8004
siesta:   31   -31428.1161   -31428.0392   -31428.1141  0.0613 -2.8000
siesta:   32   -31428.1160   -31428.0708   -31428.1453  0.0546 -2.7996
siesta:   33   -31428.1160   -31428.0965   -31428.1712  0.0482 -2.7993
siesta:   34   -31427.7866   -31428.1944   -31428.2690  1.0455 -2.8028
siesta:   35   -31428.1160   -31428.1060   -31428.1796  0.0450 -2.7993
siesta:   36   -31428.1160   -31428.1089   -31428.1835  0.0422 -2.7993
siesta:   37   -31428.1160   -31428.1033   -31428.1779  0.0406 -2.7992
siesta:   38   -31428.1160   -31428.1030   -31428.1777  0.0400 -2.7992
siesta:   39   -31428.1160   -31428.1043   -31428.1790  0.0390 -2.7992
siesta:   40   -31428.1160   -31428.1056   -31428.1803  0.0383 -2.7991
siesta:   41   -31428.1160   -31428.1067   -31428.1813  0.0378 -2.7991
siesta:   42   -31427.7866   -31428.1486   -31428.2232  1.0465 -2.8029
siesta:   43   -31428.1160   -31428.1057   -31428.1791  0.0378 -2.7991
siesta:   44   -31428.1160   -31428.1054   -31428.1800  0.0367 -2.7991
siesta:   45   -31428.1160   -31428.1052   -31428.1798  0.0364 -2.7991
siesta:   46   -31428.1160   -31428.1054   -31428.1801  0.0364 -2.7991
siesta:   47   -31428.1160   -31428.1053   -31428.1800  0.0363 -2.7991
siesta:   48   -31428.1160   -31428.1049   -31428.1795  0.0362 -2.7991
siesta:   49   -31428.1160   -31428.1053   -31428.1799  0.0358 -2.7991
siesta:   50   -31427.7866   -31428.1177   -31428.1923  1.0463 -2.8032
siesta:   51   -31428.1160   -31428.1050   -31428.1785  0.0358 -2.7991
siesta:   52   -31428.1160   -31428.1050   -31428.1796  0.0352 -2.7991
siesta:   53   -31428.1160   -31428.1049   -31428.1795  0.0352 -2.7991
siesta:   54   -31428.1160   -31428.1050   -31428.1796  0.0345 -2.7991
siesta:   55   -31428.1160   -31428.1050   -31428.1797  0.0354 -2.7991
siesta:   56   -31428.1160   -31428.1051   -31428.1797  0.0350 -2.7991
siesta:   57   -31428.1160   -31428.1055   -31428.1801  0.0352 -2.7991
siesta:   58   -31427.7866   -31428.1054   -31428.1800  1.0463 -2.8032
siesta:   59   -31428.1160   -31428.1048   -31428.1783  0.0353 -2.7991
siesta:   60   -31428.1160   -31428.1049   -31428.1795  0.0345 -2.7991
siesta:   61   -31428.1160   -31428.1050   -31428.1796  0.0341 -2.7991
siesta:   62   -31428.1160   -31428.1049   -31428.1795  0.0341 -2.7991
siesta:   63   -31428.1160   -31428.1050   -31428.1796  0.0347 -2.7991
siesta:   64   -31428.1160   -31428.1051   -31428.1797  0.0346 -2.7991
siesta:   65   -31428.1160   -31428.1049   -31428.1795  0.0352 -2.7991
siesta:   66   -31427.7866   -31428.1082   -31428.1828  1.0464 -2.8033
siesta:   67   -31428.1160   -31428.1051   -31428.1786  0.0347 -2.7991
siesta:   68   -31428.1160   -31428.1054   -31428.1800  0.0339 -2.7991
siesta:   69   -31428.1160   -31428.1054   -31428.1801  0.0335 -2.7991
siesta:   70   -31428.1160   -31428.1054   -31428.1800  0.0337 -2.7991
siesta:   71   -31428.1160   -31428.1054   -31428.1800  0.0337 -2.7991
siesta:   72   -31428.1160   -31428.1054   -31428.1800  0.0336 -2.7991
siesta:   73   -31428.1160   -31428.1054   -31428.1800  0.0336 -2.7991
siesta:   74   -31427.7866   -31428.1150   -31428.1896  1.0464 -2.8033
siesta:   75   -31428.1160   -31428.1056   -31428.1791  0.0333 -2.7991
siesta:   76   -31428.1160   -31428.1055   -31428.1801  0.0332 -2.7991
siesta:   77   -31428.1160   -31428.1055   -31428.1801  0.0335 -2.7991
siesta:   78   -31428.1160   -31428.1055   -31428.1802  0.0335 -2.7991
siesta:   79   -31428.1160   -31428.1055   -31428.1801  0.0337 -2.7991
siesta:   80   -31428.1160   -31428.1055   -31428.1801  0.0336 -2.7991
siesta:   81   -31427.7868   -31428.1065   -31428.1811  1.0175 -2.8035
siesta:   82   -31428.1160   -31428.1058   -31428.1792  0.0312 -2.7991
siesta:   83   -31427.7868   -31428.1069   -31428.1815  1.0195 -2.8035
siesta:   84   -31428.1255   -31428.0746   -31428.1479  0.1508 -2.8029
siesta:   85   -31428.1160   -31428.1054   -31428.1780  0.0336 -2.7991
siesta:   86   -31427.7868   -31428.1065   -31428.1811  1.0175 -2.8035
siesta:   87   -31428.1256   -31428.0743   -31428.1476  0.1528 -2.8030
siesta:   88   -31428.2230   -31428.0764   -31428.1489  0.0886 -2.7936
siesta:   89   -31428.1160   -31428.1055   -31428.1343  0.0335 -2.7991
siesta:   90   -31428.1160   -31428.1057   -31428.1803  0.0327 -2.7991
siesta:   91   -31428.1160   -31428.1061   -31428.1807  0.0307 -2.7991
siesta:   92   -31428.1160   -31428.1061   -31428.1807  0.0309 -2.7991
siesta:   93   -31428.1160   -31428.1060   -31428.1806  0.0314 -2.7991
siesta:   94   -31427.7866   -31428.1135   -31428.1881  1.0465 -2.8032
siesta:   95   -31428.1160   -31428.1056   -31428.1791  0.0331 -2.7991
siesta:   96   -31428.1160   -31428.1056   -31428.1802  0.0331 -2.7991
siesta:   97   -31427.7868   -31428.1066   -31428.1813  1.0179 -2.8035
siesta:   98   -31428.1256   -31428.0744   -31428.1477  0.1524 -2.8029
siesta:   99   -31428.2228   -31428.0765   -31428.1490  0.0884 -2.7937
siesta:  100   -31428.3337   -31428.0759   -31428.1048  0.1508 -2.7602
siesta:  101   -31428.3974   -31428.0710   -31428.1209  0.0915 -2.7854
siesta:  102   -31428.2712   -31428.0798   -31428.0829  0.1306 -2.7823
siesta:  103   -31428.1160   -31428.1056   -31428.1484  0.0331 -2.7991
siesta:  104   -31428.1160   -31428.1056   -31428.1802  0.0331 -2.7991
siesta:  105   -31428.1159   -31428.1165   -31428.1911  0.0008 -2.7986
siesta:  106   -31427.7865   -31428.1162   -31428.1909  1.0455 -2.8032
siesta:  107   -31428.1160   -31428.1057   -31428.1793  0.0328 -2.7991
siesta:  108   -31428.1160   -31428.1058   -31428.1804  0.0324 -2.7991
siesta:  109   -31427.7868   -31428.1068   -31428.1814  1.0185 -2.8035
siesta:  110   -31428.1160   -31428.1056   -31428.1790  0.0329 -2.7991
siesta:  111   -31428.1160   -31428.1057   -31428.1803  0.0329 -2.7991
siesta:  112   -31428.1160   -31428.1056   -31428.1802  0.0331 -2.7991
siesta:  113   -31428.1160   -31428.1057   -31428.1803  0.0327 -2.7991
siesta:  114   -31428.1160   -31428.1057   -31428.1803  0.0329 -2.7991
siesta:  115   -31428.1160   -31428.1062   -31428.1808  0.0312 -2.7991
siesta:  116   -31428.1160   -31428.1049   -31428.1796  0.0352 -2.7991
siesta:  117   -31427.7866   -31428.1162   -31428.1908  1.0466 -2.8032
siesta:  118   -31428.1160   -31428.1057   -31428.1792  0.0328 -2.7991
siesta:  119   -31428.1160   -31428.1057   -31428.1803  0.0327 -2.7991
siesta:  120   -31428.1160   -31428.1059   -31428.1805  0.0321 -2.7991
siesta:  121   -31428.1160   -31428.1058   -31428.1804  0.0326 -2.7991
siesta:  122   -31428.1160   -31428.1059   -31428.1805  0.0322 -2.7991
siesta:  123   -31427.7868   -31428.1069   -31428.1815  1.0187 -2.8035
siesta:  124   -31428.1256   -31428.0746   -31428.1480  0.1516 -2.8029
siesta:  125   -31428.2226   -31428.0767   -31428.1492  0.0879 -2.7937
siesta:  126   -31428.3337   -31428.0761   -31428.1051  0.1502 -2.7602
siesta:  127   -31428.1160   -31428.1070   -31428.1568  0.0289 -2.7990
siesta:  128   -31427.7867   -31428.1084   -31428.1830  1.0216 -2.8035
siesta:  129   -31428.1160   -31428.1056   -31428.1791  0.0330 -2.7991
siesta:  130   -31428.1160   -31428.1054   -31428.1800  0.0338 -2.7991
siesta:  131   -31428.1160   -31428.1041   -31428.1787  0.0378 -2.7992
siesta:  132   -31428.1160   -31428.1036   -31428.1783  0.0393 -2.7992
siesta:  133   -31428.1160   -31428.1038   -31428.1784  0.0387 -2.7992
siesta:  134   -31428.1160   -31428.1042   -31428.1788  0.0376 -2.7991
siesta:  135   -31427.7868   -31428.1054   -31428.1800  1.0140 -2.8036
siesta:  136   -31428.1160   -31428.1077   -31428.1810  0.0264 -2.7990
siesta:  137   -31428.1160   -31428.1078   -31428.1824  0.0262 -2.7990
siesta:  138   -31428.1160   -31428.1078   -31428.1824  0.0263 -2.7990
siesta:  139   -31427.7868   -31428.1086   -31428.1832  1.0239 -2.8035
siesta:  140   -31428.1253   -31428.0761   -31428.1495  0.1466 -2.8029
siesta:  141   -31428.2208   -31428.0781   -31428.1507  0.0846 -2.7937
siesta:  142   -31428.3331   -31428.0774   -31428.1069  0.1463 -2.7603
siesta:  143   -31428.3974   -31428.0724   -31428.1221  0.0915 -2.7853
siesta:  144   -31428.1160   -31428.1078   -31428.1108  0.0262 -2.7990
siesta:  145   -31428.1160   -31428.1078   -31428.1824  0.0261 -2.7990
siesta:  146   -31428.1160   -31428.1078   -31428.1824  0.0261 -2.7990
siesta:  147   -31427.7865   -31428.1164   -31428.1911  1.0454 -2.8033
siesta:  148   -31428.1160   -31428.1080   -31428.1817  0.0255 -2.7990
siesta:  149   -31427.7867   -31428.1084   -31428.1831  1.0220 -2.8035
siesta:  150   -31428.1160   -31428.1078   -31428.1813  0.0263 -2.7990
siesta:  151   -31428.1160   -31428.1075   -31428.1821  0.0270 -2.7990
siesta:  152   -31428.1160   -31428.1074   -31428.1820  0.0274 -2.7990
siesta:  153   -31428.1160   -31428.1073   -31428.1819  0.0277 -2.7990
siesta:  154   -31428.1160   -31428.1073   -31428.1819  0.0278 -2.7990
siesta:  155   -31428.1160   -31428.1074   -31428.1820  0.0275 -2.7990
siesta:  156   -31428.1160   -31428.1074   -31428.1820  0.0275 -2.7990
siesta:  157   -31427.7866   -31428.1162   -31428.1908  1.0465 -2.8032
siesta:  158   -31428.1160   -31428.1075   -31428.1810  0.0270 -2.7990
siesta:  159   -31428.1160   -31428.1076   -31428.1822  0.0268 -2.7990
siesta:  160   -31428.1161   -31428.1076   -31428.1822  0.0267 -2.7990
siesta:  161   -31427.7868   -31428.1085   -31428.1831  1.0234 -2.8035
siesta:  162   -31428.1253   -31428.0760   -31428.1494  0.1470 -2.8029
siesta:  163   -31428.2209   -31428.0780   -31428.1506  0.0849 -2.7937
siesta:  164   -31428.3332   -31428.0773   -31428.1068  0.1467 -2.7603
siesta:  165   -31428.3974   -31428.0723   -31428.1220  0.0915 -2.7854
siesta:  166   -31428.1160   -31428.1075   -31428.1105  0.0272 -2.7990
siesta:  167   -31428.1160   -31428.1074   -31428.1820  0.0274 -2.7990
siesta:  168   -31428.1160   -31428.1074   -31428.1820  0.0275 -2.7990
siesta:  169   -31427.7866   -31428.1161   -31428.1907  1.0468 -2.8032
siesta:  170   -31428.1160   -31428.1076   -31428.1811  0.0267 -2.7990
siesta:  171   -31428.1160   -31428.1077   -31428.1823  0.0266 -2.7990
siesta:  172   -31427.7868   -31428.1085   -31428.1831  1.0235 -2.8035
siesta:  173   -31428.1253   -31428.0761   -31428.1494  0.1469 -2.8029
siesta:  174   -31428.2207   -31428.0781   -31428.1507  0.0848 -2.7937
siesta:  175   -31428.1160   -31428.1076   -31428.1372  0.0267 -2.7990
siesta:  176   -31428.1160   -31428.1077   -31428.1823  0.0265 -2.7990
siesta:  177   -31428.1161   -31428.1077   -31428.1823  0.0266 -2.7990
siesta:  178   -31428.1161   -31428.1077   -31428.1823  0.0265 -2.7990
siesta:  179   -31428.1160   -31428.1077   -31428.1823  0.0264 -2.7990
siesta:  180   -31427.7866   -31428.1163   -31428.1909  1.0465 -2.8032
siesta:  181   -31428.1161   -31428.1077   -31428.1812  0.0265 -2.7990
siesta:  182   -31427.7868   -31428.1085   -31428.1831  1.0236 -2.8035
siesta:  183   -31428.1160   -31428.1078   -31428.1811  0.0263 -2.7990
siesta:  184   -31428.1160   -31428.1079   -31428.1825  0.0258 -2.7990
siesta:  185   -31428.1161   -31428.1077   -31428.1823  0.0265 -2.7990
siesta:  186   -31428.1160   -31428.1078   -31428.1824  0.0263 -2.7990
siesta:  187   -31428.1160   -31428.1077   -31428.1823  0.0264 -2.7990
siesta:  188   -31428.1160   -31428.1075   -31428.1821  0.0271 -2.7990
siesta:  189   -31427.7868   -31428.1083   -31428.1830  1.0231 -2.8035
siesta:  190   -31428.1160   -31428.1078   -31428.1812  0.0260 -2.7990
siesta:  191   -31427.7868   -31428.1087   -31428.1833  1.0241 -2.8035
siesta:  192   -31428.1160   -31428.1078   -31428.1812  0.0261 -2.7990
siesta:  193   -31428.1160   -31428.1080   -31428.1826  0.0257 -2.7990
siesta:  194   -31428.1160   -31428.1078   -31428.1824  0.0262 -2.7990
siesta:  195   -31427.7868   -31428.1086   -31428.1832  1.0239 -2.8035
siesta:  196   -31428.1160   -31428.1081   -31428.1815  0.0251 -2.7990
siesta:  197   -31428.1161   -31428.1080   -31428.1826  0.0256 -2.7990
siesta:  198   -31428.1161   -31428.1080   -31428.1827  0.0255 -2.7990
siesta:  199   -31427.7868   -31428.1088   -31428.1834  1.0245 -2.8035

siesta: E_KS(eV) =           -31428.0763

siesta: E_KS - E_eggbox =    -31428.0763

siesta: Atomic forces (eV/Ang):
----------------------------------------
   Tot    0.005198   -0.003868   -0.006467
----------------------------------------
   Max    1.314616
   Res    0.636302    sqrt( Sum f_i^2 / 3N )
----------------------------------------
   Max    1.314616    constrained

Stress-tensor-Voigt (kbar):        4.21        4.16        3.94       -0.02        0.02        0.01
(Free)E + p*V (eV/cell)   -31461.5533
Target enthalpy (eV/cell)   -31428.1497
 
mulliken: Atomic and Orbital Populations:

Species: Ag                  
Atom  Qatom  Qorb
               5s      5s      4dxy    4dyz    4dz2    4dxz    4dx2-y2 4dxy    
               4dyz    4dz2    4dxz    4dx2-y2 5Ppy    5Ppz    5Ppx    
   1 11.076   0.405   0.412   1.869   1.907   1.896   1.907   1.869   0.033
              0.015   0.025   0.015   0.033   0.248   0.194   0.248
   2 10.985   0.649   0.279   1.942   1.943   1.926   1.973   1.910  -0.003
             -0.006  -0.003  -0.016   0.000   0.182   0.102   0.108
   3 10.985   0.649   0.279   1.942   1.943   1.926   1.973   1.910  -0.003
             -0.006  -0.003  -0.016   0.000   0.182   0.102   0.108
   4 10.985   0.648   0.279   1.918   1.986   1.926   1.929   1.933  -0.001
             -0.020  -0.003  -0.002  -0.002   0.114   0.102   0.176
   5 10.983   0.646   0.280   1.917   1.944   1.926   1.971   1.934   0.000
             -0.007  -0.003  -0.015  -0.002   0.138   0.102   0.151
   6 10.985   0.648   0.279   1.918   1.986   1.926   1.929   1.933  -0.001
             -0.020  -0.003  -0.002  -0.002   0.114   0.102   0.176
   7 10.983   0.646   0.280   1.917   1.944   1.926   1.971   1.934   0.000
             -0.007  -0.003  -0.015  -0.002   0.138   0.102   0.151
   8 10.997   0.453   0.347   1.900   1.926   1.922   1.914   1.885   0.013
              0.010   0.014   0.009   0.022   0.176   0.169   0.237
   9 10.990   0.786   0.234   1.925   1.991   1.939   1.942   1.985  -0.007
             -0.026  -0.016  -0.011  -0.026   0.087   0.080   0.108
  10 10.996   0.452   0.347   1.889   1.917   1.922   1.923   1.896   0.020
              0.009   0.014   0.009   0.015   0.222   0.169   0.192
  11 10.996   0.452   0.347   1.889   1.917   1.922   1.923   1.896   0.020
              0.009   0.014   0.009   0.015   0.222   0.169   0.192
  12 10.993   0.789   0.233   1.970   1.955   1.939   1.979   1.940  -0.021
             -0.015  -0.016  -0.022  -0.012   0.103   0.081   0.092
  13 10.993   0.789   0.233   1.970   1.955   1.939   1.979   1.940  -0.021
             -0.015  -0.016  -0.022  -0.012   0.103   0.081   0.092
  14 11.045   0.537   0.363   1.882   1.914   1.907   1.915   1.893   0.021
              0.011   0.015   0.012   0.017   0.206   0.162   0.191
  15 11.046   0.538   0.362   1.882   1.914   1.907   1.915   1.893   0.021
              0.011   0.015   0.012   0.017   0.206   0.162   0.191
  16 11.046   0.538   0.362   1.898   1.916   1.907   1.913   1.877   0.015
              0.012   0.015   0.011   0.023   0.184   0.162   0.214
  17 10.905   0.641   0.254   1.931   1.991   1.954   1.937   1.987  -0.008
             -0.025  -0.015  -0.010  -0.024   0.084   0.098   0.111
  18 10.905   0.638   0.255   1.973   1.950   1.954   1.977   1.945  -0.020
             -0.014  -0.014  -0.021  -0.012   0.104   0.098   0.092
  19 10.912   0.661   0.238   1.973   1.950   1.954   1.977   1.945  -0.020
             -0.014  -0.015  -0.021  -0.012   0.104   0.098   0.092
  20 11.044   0.537   0.363   1.925   1.877   1.879   1.926   1.902   0.010
              0.023   0.020   0.008   0.014   0.208   0.211   0.141
  21 11.045   0.536   0.363   1.925   1.877   1.879   1.926   1.902   0.010
              0.023   0.020   0.008   0.014   0.208   0.211   0.140
  22 11.045   0.537   0.362   1.908   1.914   1.879   1.889   1.920   0.013
              0.012   0.020   0.020   0.011   0.157   0.211   0.191
  23 11.045   0.538   0.362   1.908   1.914   1.879   1.890   1.919   0.013
              0.012   0.020   0.020   0.011   0.157   0.211   0.191
  24 11.045   0.537   0.363   1.908   1.914   1.879   1.889   1.920   0.013
              0.012   0.020   0.020   0.011   0.157   0.211   0.191
  25 11.045   0.538   0.362   1.908   1.914   1.879   1.889   1.920   0.013
              0.012   0.020   0.020   0.011   0.157   0.211   0.192
  26 11.078   0.173   0.548   1.887   1.892   1.881   1.892   1.887   0.029
              0.028   0.030   0.028   0.029   0.258   0.259   0.258
  27 11.045   0.537   0.362   1.898   1.916   1.907   1.913   1.877   0.015
              0.012   0.015   0.011   0.023   0.184   0.162   0.214
  28 10.905   0.640   0.254   1.931   1.991   1.954   1.937   1.987  -0.008
             -0.025  -0.015  -0.010  -0.024   0.084   0.098   0.111
  29 11.046   0.538   0.362   1.882   1.914   1.907   1.915   1.893   0.021
              0.011   0.015   0.011   0.017   0.206   0.162   0.192
  30 11.045   0.537   0.363   1.882   1.914   1.907   1.915   1.893   0.021
              0.011   0.015   0.012   0.017   0.206   0.162   0.191
  31 10.905   0.640   0.254   1.973   1.950   1.954   1.977   1.945  -0.020
             -0.014  -0.015  -0.021  -0.012   0.104   0.098   0.091
  32 10.904   0.639   0.254   1.973   1.950   1.954   1.977   1.945  -0.020
             -0.014  -0.014  -0.021  -0.012   0.104   0.098   0.091

mulliken: Qtot =      352.000

* Maximum dynamic memory allocated =    84 MB

siesta: Program's energy decomposition (eV):
siesta: Ebs     =     -2136.858263
siesta: Eions   =     35531.607510
siesta: Ena     =       314.489247
siesta: Ekin    =     25877.830706
siesta: Enl     =    -17203.293476
siesta: DEna    =       115.048721
siesta: DUscf   =        21.871668
siesta: DUext   =         0.000000
siesta: Exc     =     -5022.415706
siesta: eta*DQ  =         0.000000
siesta: Emadel  =         0.000000
siesta: Emeta   =         0.000000
siesta: Emolmec =         0.000000
siesta: Ekinion =         0.000000
siesta: Eharris =    -31427.786763
siesta: Etot    =    -31428.076350
siesta: FreeEng =    -31428.149725

siesta: Final energy (eV):
siesta:  Band Struct. =   -2136.858263
siesta:       Kinetic =   25877.830706
siesta:       Hartree =   80231.339792
siesta:    Ext. field =       0.000000
siesta:   Exch.-corr. =   -5022.415706
siesta:  Ion-electron = -181958.666631
siesta:       Ion-ion =   49443.835489
siesta:       Ekinion =       0.000000
siesta:         Total =  -31428.076350

siesta: Atomic forces (eV/Ang):
siesta:      1   -0.002961   -0.002266    0.219915
siesta:      2   -0.997994   -0.143414    0.871289
siesta:      3    0.999118   -0.143829    0.869949
siesta:      4   -0.627457   -0.794215    0.874838
siesta:      5   -0.381526    0.938445    0.872114
siesta:      6    0.637036   -0.795073    0.873202
siesta:      7    0.384528    0.939246    0.872942
siesta:      8   -0.006198   -0.386501   -0.861754
siesta:      9    0.001646    1.034463   -0.957068
siesta:     10   -0.343870    0.195706   -0.865822
siesta:     11    0.346665    0.197905   -0.864129
siesta:     12   -0.895710   -0.513709   -0.956638
siesta:     13    0.893372   -0.516520   -0.954709
siesta:     14   -0.230966   -0.126800    0.401667
siesta:     15    0.242848   -0.125044    0.415329
siesta:     16   -0.062038    0.265662    0.338878
siesta:     17    0.004711   -1.314616    0.924559
siesta:     18    1.194118    0.635848    0.968529
siesta:     19   -1.313052    0.836794    1.086736
siesta:     20   -0.411108   -0.127692   -0.151502
siesta:     21    0.511228    0.008515    0.024775
siesta:     22   -0.268587   -0.432917    0.002462
siesta:     23   -0.172166    0.396075   -0.024092
siesta:     24    0.280760   -0.457303    0.004250
siesta:     25    0.239036    0.454885   -0.036096
siesta:     26   -0.037278   -0.001319    0.057985
siesta:     27   -0.002105   -0.309068   -0.432800
siesta:     28    0.009338    1.277580   -0.898666
siesta:     29   -0.282955    0.153632   -0.408326
siesta:     30    0.282918    0.153361   -0.434765
siesta:     31   -1.117247   -0.646218   -0.911212
siesta:     32    1.131093   -0.655482   -0.928305
siesta: ----------------------------------------
siesta:    Tot    0.005198   -0.003868   -0.006467

siesta: Stress tensor (static) (eV/Ang**3):
siesta:     0.002626   -0.000012   -0.000032
siesta:    -0.000012    0.002596    0.000031
siesta:     0.000008    0.000011    0.002462

siesta: Cell volume =      13041.289483 Ang**3

siesta: Pressure (static):
siesta:                Solid            Molecule  Units
siesta:          -0.00002790         -0.00000005  Ry/Bohr**3
siesta:          -0.00256137         -0.00000475  eV/Ang**3
siesta:          -4.10380910         -0.00760490  kBar
(Free)E+ p_basis*V_orbitals  =      -31405.279514
(Free)Eharris+ p_basis*V_orbitals  =      -31404.957442

siesta: Electric dipole (a.u.)  =   -0.037103    0.580640   -1.213033
siesta: Electric dipole (Debye) =   -0.094308    1.475840   -3.083224

Optical: Performing optical calculation: 

Optical: Polarization type       = polarized   
Optical: Minimum of energy range =   0.0001 Ry 
Optical: Maximum of energy range =   7.3498 Ry 
Optical: Gaussian broadening     =   0.0037 Ry 
Optical: Scissor operator        =   0.0000 Ry 
Optical: Number of bands         =      480
Optical: BZ mesh dimensions      =    1   1   1

Optical: electric field direction
Optical:      1.00000     0.00000     0.00000

Optical: Checking f-sum rule  0.368049
Optical: For insulators and closed shell systems
Optical: this number should be close to 1 if an enough
Optical: number of unoccupied bands have been included

* Maximum dynamic memory allocated : Node    0 =    72 MB
* Maximum dynamic memory allocated : Node    1 =    72 MB
* Maximum dynamic memory allocated : Node    2 =    72 MB
* Maximum dynamic memory allocated : Node    3 =    72 MB
* Maximum dynamic memory allocated : Node    4 =    72 MB
* Maximum dynamic memory allocated : Node    5 =    72 MB
* Maximum dynamic memory allocated : Node    6 =    72 MB
* Maximum dynamic memory allocated : Node    7 =    72 MB
* Maximum dynamic memory allocated : Node    8 =    72 MB
* Maximum dynamic memory allocated : Node    9 =    72 MB
* Maximum dynamic memory allocated : Node   10 =    72 MB
* Maximum dynamic memory allocated : Node   11 =    72 MB
* Maximum dynamic memory allocated : Node   12 =    72 MB
* Maximum dynamic memory allocated : Node   13 =    72 MB
* Maximum dynamic memory allocated : Node   14 =    72 MB
* Maximum dynamic memory allocated : Node   15 =    72 MB
* Maximum dynamic memory allocated : Node   16 =    72 MB
* Maximum dynamic memory allocated : Node   17 =    72 MB
* Maximum dynamic memory allocated : Node   18 =    72 MB
* Maximum dynamic memory allocated : Node   19 =    73 MB
* Maximum dynamic memory allocated : Node   20 =    76 MB
* Maximum dynamic memory allocated : Node   21 =    77 MB
* Maximum dynamic memory allocated : Node   22 =    74 MB
* Maximum dynamic memory allocated : Node   23 =    72 MB
* Maximum dynamic memory allocated : Node   24 =    72 MB
* Maximum dynamic memory allocated : Node   25 =    72 MB
* Maximum dynamic memory allocated : Node   26 =    72 MB
* Maximum dynamic memory allocated : Node   27 =    74 MB
* Maximum dynamic memory allocated : Node   28 =    82 MB
* Maximum dynamic memory allocated : Node   29 =    84 MB
* Maximum dynamic memory allocated : Node   30 =    77 MB
* Maximum dynamic memory allocated : Node   31 =    72 MB
* Maximum dynamic memory allocated : Node   32 =    75 MB
* Maximum dynamic memory allocated : Node   33 =    75 MB
* Maximum dynamic memory allocated : Node   34 =    71 MB
* Maximum dynamic memory allocated : Node   35 =    72 MB
* Maximum dynamic memory allocated : Node   36 =    77 MB
* Maximum dynamic memory allocated : Node   37 =    79 MB
* Maximum dynamic memory allocated : Node   38 =    75 MB
* Maximum dynamic memory allocated : Node   39 =    72 MB
* Maximum dynamic memory allocated : Node   40 =    80 MB
* Maximum dynamic memory allocated : Node   41 =    79 MB
* Maximum dynamic memory allocated : Node   42 =    72 MB
* Maximum dynamic memory allocated : Node   43 =    71 MB
* Maximum dynamic memory allocated : Node   44 =    72 MB
* Maximum dynamic memory allocated : Node   45 =    72 MB
* Maximum dynamic memory allocated : Node   46 =    71 MB
* Maximum dynamic memory allocated : Node   47 =    72 MB
* Maximum dynamic memory allocated : Node   48 =    77 MB
* Maximum dynamic memory allocated : Node   49 =    77 MB
* Maximum dynamic memory allocated : Node   50 =    72 MB
* Maximum dynamic memory allocated : Node   51 =    71 MB
* Maximum dynamic memory allocated : Node   52 =    71 MB
* Maximum dynamic memory allocated : Node   53 =    71 MB
* Maximum dynamic memory allocated : Node   54 =    71 MB
* Maximum dynamic memory allocated : Node   55 =    72 MB
* Maximum dynamic memory allocated : Node   56 =    72 MB
* Maximum dynamic memory allocated : Node   57 =    72 MB
* Maximum dynamic memory allocated : Node   58 =    71 MB
* Maximum dynamic memory allocated : Node   59 =    71 MB
* Maximum dynamic memory allocated : Node   60 =    70 MB
* Maximum dynamic memory allocated : Node   61 =    70 MB
* Maximum dynamic memory allocated : Node   62 =    70 MB
* Maximum dynamic memory allocated : Node   63 =    70 MB

* Maximum memory occured during redistribXY                   

timer: CPU execution times:
timer:  Routine       Calls   Time/call    Tot.time        %
timer:  siesta            1   79646.872   79646.872   100.00
timer:  Setup             1      57.511      57.511     0.07
timer:  bands             1       0.045       0.045     0.00
timer:  writewave         1       0.035       0.035     0.00
timer:  KSV_init          1       0.006       0.006     0.00
timer:  IterMD            1   79248.634   79248.634    99.50
timer:  hsparse           1       0.053       0.053     0.00
timer:  overlap           1      13.916      13.916     0.02
timer:  IterSCF         199     395.078   78620.526    98.71
timer:  kinefsm           2       6.581      13.163     0.02
timer:  nlefsm            2      24.923      49.846     0.06
timer:  DHSCF           200     362.871   72574.104    91.12
timer:  DHSCF1            1      50.003      50.003     0.06
timer:  DHSCF2            1     211.800     211.800     0.27
timer:  REORD          1602       0.111     178.472     0.22
timer:  POISON          201      45.784    9202.572    11.55
timer:  DHSCF3          200     360.950   72189.948    90.64
timer:  rhoofd          200      17.968    3593.640     4.51
timer:  cellXC          200      45.172    9034.338    11.34
timer:  vmat            200     121.901   24380.112    30.61
timer:  MolMec            2       0.001       0.003     0.00
timer:  diagon          199      22.459    4469.429     5.61
timer:  r-eigvec        199      21.881    4354.269     5.47
timer:  r-buildHS       199       0.003       0.571     0.00
timer:  rdiag           200      22.062    4412.373     5.54
timer:  rdiag1          200       0.478      95.578     0.12
timer:  rdiag2          200       4.921     984.248     1.24
timer:  rdiag3          200      13.360    2672.037     3.35
timer:  rdiag4          200       1.159     231.770     0.29
timer:  r-buildD        199       0.557     110.848     0.14
timer:  DHSCF4            1      44.629      44.629     0.06
timer:  dfscf             1      41.430      41.430     0.05
timer:  overfsm           1       0.080       0.080     0.00
timer:  optical           1     316.334     316.334     0.40
timer:  phirphiopt        1     120.015     120.015     0.15
timer:  transrate         1     128.516     128.516     0.16
  

elaps: ELAPSED times:
elaps:  Routine       Calls   Time/call    Tot.time        %
elaps:  siesta            1    1246.058    1246.058   100.00
elaps:  Setup             1       0.874       0.874     0.07
elaps:  bands             1       0.000       0.000     0.00
elaps:  writewave         1       0.001       0.001     0.00
elaps:  KSV_init          1       0.000       0.000     0.00
elaps:  IterMD            1    1239.841    1239.841    99.50
elaps:  hsparse           1       0.001       0.001     0.00
elaps:  overlap           1       0.235       0.235     0.02
elaps:  IterSCF         199       6.181    1229.977    98.71
elaps:  kinefsm           2       0.111       0.222     0.02
elaps:  nlefsm            2       0.403       0.806     0.06
elaps:  DHSCF           200       5.532    1106.427    88.79
elaps:  DHSCF1            1       0.756       0.756     0.06
elaps:  DHSCF2            1       3.322       3.322     0.27
elaps:  REORD          1602       0.002       2.754     0.22
elaps:  POISON          201       0.718     144.367    11.59
elaps:  DHSCF3          200       5.501    1100.125    88.29
elaps:  rhoofd          200       0.031       6.166     0.49
elaps:  cellXC          200       0.710     141.942    11.39
elaps:  vmat            200       1.760     352.055    28.25
elaps:  MolMec            2       0.000       0.000     0.00
elaps:  diagon          199       0.496      98.618     7.91
elaps:  r-eigvec        199       0.486      96.762     7.77
elaps:  r-buildHS       199       0.000       0.007     0.00
elaps:  rdiag           200       0.487      97.442     7.82
elaps:  rdiag1          200       0.008       1.511     0.12
elaps:  rdiag2          200       0.077      15.401     1.24
elaps:  rdiag3          200       0.209      41.772     3.35
elaps:  rdiag4          200       0.019       3.730     0.30
elaps:  r-buildD        199       0.009       1.787     0.14
elaps:  DHSCF4            1       1.147       1.147     0.09
elaps:  dfscf             1       1.135       1.135     0.09
elaps:  overfsm           1       0.002       0.002     0.00
elaps:  optical           1       5.218       5.218     0.42
elaps:  phirphiopt        1       2.105       2.105     0.17
elaps:  transrate         1       2.008       2.008     0.16
  
>> End of run:  10-MAY-2012  18:03:38
