Siesta Version:                                        siesta-3.1
Architecture  : x86_64-unknown-linux-gnu--Intel
Compiler flags: mpif90 -O3 -xSSSE3 -axSSE4.2,SSE4.1 -ip
PARALLEL version
NetCDF support

* Running on   64 nodes in parallel
>> Start of run:  23-APR-2012  17:42:20

                           ***********************       
                           *  WELCOME TO SIESTA  *       
                           ***********************       

reinit: Reading from standard input
************************** Dump of input data file ****************************
SystemName      optical
SystemLabel     optical
NumberOfAtoms   1282
NumberOfSpecies 4
MD.TypeOfRun    CG
MD.NumCGsteps   1
MD.ConstantVolume  .true.
SolutionMethod  diagon
XC.functional   GGA
XC.authors      PBE
PAO.BasisSize   DZP
DM.NumberPulay  10
DM.MixingWeight 0.03
DirectPhi       .true.
SaveMemory      .true.
MeshCutoff      500 Ry
MaxSCFiterations 200
UseSaveData     .true.
WriteMullikenPop 1
OpticalCalculation      .true.
%block Optical.Mesh
 1 1 1
%endblock Optical.Mesh
Optical.PolarizationType  polarized
%block Optical.Vector
 0.0 0.0 1.0
%endblock Optical.Vector
Optical.Broaden         0.05 eV
Optical.EnergyMinimum   0.001 eV
Optical.EnergyMaximum   100.0 eV
%block ChemicalSpeciesLabel
 1   1   H
 2   6   C
 3   9   F
 4  47   Ag
%endblock ChemicalSpeciesLabel
LatticeConstant 1.0 Ang
%block LatticeParameters
  22.534   24.472   23.649   90.0 90.0 90.0
%endblock LatticeParameters
AtomicCoordinatesFormat Ang
%block AtomicCoordinatesAndAtomicSpecies < struct.coor
%endblock AtomicCoordinatesAndAtomicSpecies
************************** End of input data file *****************************

reinit: -----------------------------------------------------------------------
reinit: System Name: optical
reinit: -----------------------------------------------------------------------
reinit: System Label: optical                                                     
reinit: -----------------------------------------------------------------------

initatom: Reading input for the pseudopotentials and atomic orbitals ----------
 Species number:            1  Label: H Atomic number:           1
 Species number:            2  Label: C Atomic number:           6
 Species number:            3  Label: F Atomic number:           9
 Species number:            4  Label: Ag Atomic number:          47
Ground state valence configuration:   1s01
Reading pseudopotential information in formatted form from H.psf

Valence configuration for pseudopotential generation:
1s( 1.00) rc: 1.33
2p( 0.00) rc: 1.33
3d( 0.00) rc: 0.37
4f( 0.00) rc: 1.33
Ground state valence configuration:   2s02  2p02
Reading pseudopotential information in formatted form from C.psf

Valence configuration for pseudopotential generation:
2s( 2.00) rc: 1.56
2p( 2.00) rc: 1.56
3d( 0.00) rc: 1.56
4f( 0.00) rc: 1.56
Ground state valence configuration:   2s02  2p05
Reading pseudopotential information in formatted form from F.psf

Valence configuration for pseudopotential generation:
2s( 2.00) rc: 1.41
2p( 5.00) rc: 1.41
3d( 0.00) rc: 1.41
4f( 0.00) rc: 1.41
Ground state valence configuration:   5s01  4d10
Reading pseudopotential information in formatted form from Ag.psf

Valence configuration for pseudopotential generation:
5s( 1.00) rc: 2.52
5p( 0.00) rc: 2.72
4d(10.00) rc: 2.52
4f( 0.00) rc: 2.52
For H, standard SIESTA heuristics set lmxkb to 2
 (one more than the basis l, including polarization orbitals).
Use PS.lmax or PS.KBprojectors blocks to override.
For C, standard SIESTA heuristics set lmxkb to 3
 (one more than the basis l, including polarization orbitals).
Use PS.lmax or PS.KBprojectors blocks to override.
For F, standard SIESTA heuristics set lmxkb to 3
 (one more than the basis l, including polarization orbitals).
Use PS.lmax or PS.KBprojectors blocks to override.
For Ag, standard SIESTA heuristics set lmxkb to 3
 (one more than the basis l, including polarization orbitals).
Use PS.lmax or PS.KBprojectors blocks to override.

<basis_specs>
===============================================================================
H                    Z=   1    Mass=  1.0100        Charge= 0.17977+309
Lmxo=0 Lmxkb= 2    BasisType=split      Semic=F
L=0  Nsemic=0  Cnfigmx=1
          n=1  nzeta=2  polorb=1
            splnorm:   0.15000    
               vcte:    0.0000    
               rinn:    0.0000    
                rcs:    0.0000      0.0000    
            lambdas:    1.0000      1.0000    
-------------------------------------------------------------------------------
L=0  Nkbl=1  erefs: 0.17977+309
L=1  Nkbl=1  erefs: 0.17977+309
L=2  Nkbl=1  erefs: 0.17977+309
===============================================================================
</basis_specs>

atom: Called for H                     (Z =   1)

read_vps: Pseudopotential generation method:
read_vps: ATM 3.2.2 Troullier-Martins                       
Total valence charge:    1.00000

xc_check: Exchange-correlation functional:
xc_check: GGA Perdew, Burke & Ernzerhof 1996
V l=0 = -2*Zval/r beyond r=  1.2656
V l=1 = -2*Zval/r beyond r=  1.2498
V l=2 = -2*Zval/r beyond r=  0.3563
All V_l potentials equal beyond r=  1.2656
This should be close to max(r_c) in ps generation
All pots = -2*Zval/r beyond r=  1.2656

VLOCAL1: 99.0% of the norm of Vloc inside     27.100 Ry
VLOCAL1: 99.9% of the norm of Vloc inside     61.762 Ry
atom: Maximum radius for 4*pi*r*r*local-pseudopot. charge    1.48935
atom: Maximum radius for r*vlocal+2*Zval:    1.24984
GHOST: No ghost state for L =  0
GHOST: No ghost state for L =  1
GHOST: No ghost state for L =  2

KBgen: Kleinman-Bylander projectors: 
   l= 0   rc=  1.398961   el= -0.477209   Ekb= -2.001853   kbcos= -0.352188
   l= 1   rc=  1.470814   el=  0.001006   Ekb= -0.423408   kbcos= -0.024395
   l= 2   rc=  1.489346   el=  0.001895   Ekb= -0.481957   kbcos= -0.001574

KBgen: Total number of  Kleinman-Bylander projectors:    9
atom: -------------------------------------------------------------------------

atom: SANKEY-TYPE ORBITALS:
atom: Selected multiple-zeta basis: split     

SPLIT: Orbitals with angular momentum L= 0

SPLIT: Basis orbitals for state 1s

SPLIT: PAO cut-off radius determined from an
SPLIT: energy shift=  0.020000 Ry

   izeta = 1
                 lambda =    1.000000
                     rc =    4.708991
                 energy =   -0.457764
                kinetic =    0.979534
    potential(screened) =   -1.437298
       potential(ionic) =   -1.965615

   izeta = 2
                 rmatch =    3.759707
              splitnorm =    0.150000
                 energy =   -0.339003
                kinetic =    1.582546
    potential(screened) =   -1.921548
       potential(ionic) =   -2.471878

POLgen: Perturbative polarization orbital with L=  1

POLgen: Polarization orbital for state 1s

   izeta = 1
                     rc =    4.708991
                 energy =    0.764951
                kinetic =    1.476882
    potential(screened) =   -0.711931
       potential(ionic) =   -1.204335
atom: Total number of Sankey-type orbitals:  5

atm_pop: Valence configuration (for local Pseudopot. screening):
 1s( 1.00)                                                            
Vna: chval, zval:    1.00000   1.00000

Vna:  Cut-off radius for the neutral-atom potential:   4.708991

atom: _________________________________________________________________________

<basis_specs>
===============================================================================
C                    Z=   6    Mass=  12.010        Charge= 0.17977+309
Lmxo=1 Lmxkb= 3    BasisType=split      Semic=F
L=0  Nsemic=0  Cnfigmx=2
          n=1  nzeta=2  polorb=0
            splnorm:   0.15000    
               vcte:    0.0000    
               rinn:    0.0000    
                rcs:    0.0000      0.0000    
            lambdas:    1.0000      1.0000    
L=1  Nsemic=0  Cnfigmx=2
          n=1  nzeta=2  polorb=1
            splnorm:   0.15000    
               vcte:    0.0000    
               rinn:    0.0000    
                rcs:    0.0000      0.0000    
            lambdas:    1.0000      1.0000    
-------------------------------------------------------------------------------
L=0  Nkbl=1  erefs: 0.17977+309
L=1  Nkbl=1  erefs: 0.17977+309
L=2  Nkbl=1  erefs: 0.17977+309
L=3  Nkbl=1  erefs: 0.17977+309
===============================================================================
</basis_specs>

atom: Called for C                     (Z =   6)

read_vps: Pseudopotential generation method:
read_vps: ATM 3.2.2 Troullier-Martins                       
Total valence charge:    4.00000

xc_check: Exchange-correlation functional:
xc_check: GGA Perdew, Burke & Ernzerhof 1996
V l=0 = -2*Zval/r beyond r=  1.5227
V l=1 = -2*Zval/r beyond r=  1.5227
V l=2 = -2*Zval/r beyond r=  1.5227
V l=3 = -2*Zval/r beyond r=  1.5227
All V_l potentials equal beyond r=  1.4851
This should be close to max(r_c) in ps generation
All pots = -2*Zval/r beyond r=  1.5227

VLOCAL1: 99.0% of the norm of Vloc inside     19.682 Ry
VLOCAL1: 99.9% of the norm of Vloc inside     44.856 Ry
atom: Maximum radius for 4*pi*r*r*local-pseudopot. charge    1.79142
atom: Maximum radius for r*vlocal+2*Zval:    1.54183
GHOST: No ghost state for L =  0
GHOST: No ghost state for L =  1
GHOST: No ghost state for L =  2
GHOST: No ghost state for L =  3

KBgen: Kleinman-Bylander projectors: 
   l= 0   rc=  1.661951   el= -1.010689   Ekb=  5.289847   kbcos=  0.316429
   l= 1   rc=  1.661951   el= -0.388490   Ekb= -4.102504   kbcos= -0.351025
   l= 2   rc=  1.747182   el=  0.001971   Ekb= -1.006005   kbcos= -0.008530
   l= 3   rc=  1.791422   el=  0.003065   Ekb= -0.421399   kbcos= -0.001072

KBgen: Total number of  Kleinman-Bylander projectors:   16
atom: -------------------------------------------------------------------------

atom: SANKEY-TYPE ORBITALS:
atom: Selected multiple-zeta basis: split     

SPLIT: Orbitals with angular momentum L= 0

SPLIT: Basis orbitals for state 2s

SPLIT: PAO cut-off radius determined from an
SPLIT: energy shift=  0.020000 Ry

   izeta = 1
                 lambda =    1.000000
                     rc =    4.088342
                 energy =   -0.990050
                kinetic =    0.909804
    potential(screened) =   -1.899854
       potential(ionic) =   -5.513925

   izeta = 2
                 rmatch =    3.347176
              splitnorm =    0.150000
                 energy =   -0.836186
                kinetic =    1.375045
    potential(screened) =   -2.211230
       potential(ionic) =   -6.057915

SPLIT: Orbitals with angular momentum L= 1

SPLIT: Basis orbitals for state 2p

SPLIT: PAO cut-off radius determined from an
SPLIT: energy shift=  0.020000 Ry

   izeta = 1
                 lambda =    1.000000
                     rc =    4.870301
                 energy =   -0.368677
                kinetic =    2.532104
    potential(screened) =   -2.900781
       potential(ionic) =   -6.401132

   izeta = 2
                 rmatch =    3.475094
              splitnorm =    0.150000
                 energy =   -0.205777
                kinetic =    3.787472
    potential(screened) =   -3.993249
       potential(ionic) =   -7.860448

POLgen: Perturbative polarization orbital with L=  2

POLgen: Polarization orbital for state 2p

   izeta = 1
                     rc =    4.870301
                 energy =    1.296521
                kinetic =    2.641128
    potential(screened) =   -1.344607
       potential(ionic) =   -4.300412
atom: Total number of Sankey-type orbitals: 13

atm_pop: Valence configuration (for local Pseudopot. screening):
 2s( 2.00)                                                            
 2p( 2.00)                                                            
Vna: chval, zval:    4.00000   4.00000

Vna:  Cut-off radius for the neutral-atom potential:   4.870301

atom: _________________________________________________________________________

<basis_specs>
===============================================================================
F                    Z=   9    Mass=  19.000        Charge= 0.17977+309
Lmxo=1 Lmxkb= 3    BasisType=split      Semic=F
L=0  Nsemic=0  Cnfigmx=2
          n=1  nzeta=2  polorb=0
            splnorm:   0.15000    
               vcte:    0.0000    
               rinn:    0.0000    
                rcs:    0.0000      0.0000    
            lambdas:    1.0000      1.0000    
L=1  Nsemic=0  Cnfigmx=2
          n=1  nzeta=2  polorb=1
            splnorm:   0.15000    
               vcte:    0.0000    
               rinn:    0.0000    
                rcs:    0.0000      0.0000    
            lambdas:    1.0000      1.0000    
-------------------------------------------------------------------------------
L=0  Nkbl=1  erefs: 0.17977+309
L=1  Nkbl=1  erefs: 0.17977+309
L=2  Nkbl=1  erefs: 0.17977+309
L=3  Nkbl=1  erefs: 0.17977+309
===============================================================================
</basis_specs>

atom: Called for F                     (Z =   9)

read_vps: Pseudopotential generation method:
read_vps: ATM 3.2.2 Troullier-Martins                       
Total valence charge:    7.00000

xc_check: Exchange-correlation functional:
xc_check: GGA Perdew, Burke & Ernzerhof 1996
V l=0 = -2*Zval/r beyond r=  1.3199
V l=1 = -2*Zval/r beyond r=  1.3199
V l=2 = -2*Zval/r beyond r=  1.3199
V l=3 = -2*Zval/r beyond r=  1.3199
All V_l potentials equal beyond r=  1.3199
This should be close to max(r_c) in ps generation
All pots = -2*Zval/r beyond r=  1.3199

VLOCAL1: 99.0% of the norm of Vloc inside     24.916 Ry
VLOCAL1: 99.9% of the norm of Vloc inside     56.784 Ry
atom: Maximum radius for 4*pi*r*r*local-pseudopot. charge    1.61221
atom: Maximum radius for r*vlocal+2*Zval:    1.38760
GHOST: No ghost state for L =  0
GHOST: No ghost state for L =  1
GHOST: No ghost state for L =  2
GHOST: No ghost state for L =  3

KBgen: Kleinman-Bylander projectors: 
   l= 0   rc=  1.495695   el= -2.197581   Ekb=  5.601452   kbcos=  0.238748
   l= 1   rc=  1.458760   el= -0.816694   Ekb= -9.171639   kbcos= -0.518972
   l= 2   rc=  1.552860   el=  0.001997   Ekb= -1.845583   kbcos= -0.004774
   l= 3   rc=  1.592177   el=  0.003102   Ekb= -0.701684   kbcos= -0.000616

KBgen: Total number of  Kleinman-Bylander projectors:   16
atom: -------------------------------------------------------------------------

atom: SANKEY-TYPE ORBITALS:
atom: Selected multiple-zeta basis: split     

SPLIT: Orbitals with angular momentum L= 0

SPLIT: Basis orbitals for state 2s

SPLIT: PAO cut-off radius determined from an
SPLIT: energy shift=  0.020000 Ry

   izeta = 1
                 lambda =    1.000000
                     rc =    3.012240
                 energy =   -2.180114
                kinetic =    2.050927
    potential(screened) =   -4.231041
       potential(ionic) =  -15.028689

   izeta = 2
                 rmatch =    2.203728
              splitnorm =    0.150000
                 energy =   -1.860487
                kinetic =    3.102500
    potential(screened) =   -4.962987
       potential(ionic) =  -16.601125

SPLIT: Orbitals with angular momentum L= 1

SPLIT: Basis orbitals for state 2p

SPLIT: PAO cut-off radius determined from an
SPLIT: energy shift=  0.020000 Ry

   izeta = 1
                 lambda =    1.000000
                     rc =    3.588372
                 energy =   -0.798309
                kinetic =    6.054328
    potential(screened) =   -6.852638
       potential(ionic) =  -17.288549

   izeta = 2
                 rmatch =    2.259523
              splitnorm =    0.150000
                 energy =   -0.439465
                kinetic =    8.943362
    potential(screened) =   -9.382827
       potential(ionic) =  -20.998650

POLgen: Perturbative polarization orbital with L=  2

POLgen: Polarization orbital for state 2p

   izeta = 1
                     rc =    3.588372
                 energy =    3.121679
                kinetic =    6.160101
    potential(screened) =   -3.038422
       potential(ionic) =  -11.529161
atom: Total number of Sankey-type orbitals: 13

atm_pop: Valence configuration (for local Pseudopot. screening):
 2s( 2.00)                                                            
 2p( 5.00)                                                            
Vna: chval, zval:    7.00000   7.00000

Vna:  Cut-off radius for the neutral-atom potential:   3.588372

atom: _________________________________________________________________________

<basis_specs>
===============================================================================
Ag                   Z=  47    Mass=  107.87        Charge= 0.17977+309
Lmxo=2 Lmxkb= 3    BasisType=split      Semic=F
L=0  Nsemic=0  Cnfigmx=5
          n=1  nzeta=2  polorb=1
            splnorm:   0.15000    
               vcte:    0.0000    
               rinn:    0.0000    
                rcs:    0.0000      0.0000    
            lambdas:    1.0000      1.0000    
L=1  Nsemic=0  Cnfigmx=5
L=2  Nsemic=0  Cnfigmx=4
          n=1  nzeta=2  polorb=0
            splnorm:   0.15000    
               vcte:    0.0000    
               rinn:    0.0000    
                rcs:    0.0000      0.0000    
            lambdas:    1.0000      1.0000    
-------------------------------------------------------------------------------
L=0  Nkbl=1  erefs: 0.17977+309
L=1  Nkbl=1  erefs: 0.17977+309
L=2  Nkbl=1  erefs: 0.17977+309
L=3  Nkbl=1  erefs: 0.17977+309
===============================================================================
</basis_specs>

atom: Called for Ag                    (Z =  47)

read_vps: Pseudopotential generation method:
read_vps: ATM 3.2.2 Troullier-Martins                       
Total valence charge:   11.00000

xc_check: Exchange-correlation functional:
xc_check: GGA Perdew, Burke & Ernzerhof 1996
V l=0 = -2*Zval/r beyond r=  2.4592
V l=1 = -2*Zval/r beyond r=  2.6507
V l=2 = -2*Zval/r beyond r=  2.4592
V l=3 = -2*Zval/r beyond r=  2.4592
All V_l potentials equal beyond r=  2.6507
This should be close to max(r_c) in ps generation
All pots = -2*Zval/r beyond r=  2.6507

VLOCAL1: 99.0% of the norm of Vloc inside      6.178 Ry
VLOCAL1: 99.9% of the norm of Vloc inside     14.079 Ry
atom: Maximum radius for 4*pi*r*r*local-pseudopot. charge    3.19739
atom: Maximum radius for r*vlocal+2*Zval:    2.82168
GHOST: No ghost state for L =  0
GHOST: No ghost state for L =  1
GHOST: No ghost state for L =  2
GHOST: No ghost state for L =  3

KBgen: Kleinman-Bylander projectors: 
   l= 0   rc=  2.966357   el= -0.323666   Ekb=  3.565490   kbcos=  0.247453
   l= 1   rc=  3.003670   el= -0.054265   Ekb=  1.619308   kbcos=  0.223076
   l= 2   rc=  2.786631   el= -0.547066   Ekb= -7.840816   kbcos= -0.714112
   l= 3   rc=  3.079709   el=  0.002953   Ekb= -2.732950   kbcos= -0.012571

KBgen: Total number of  Kleinman-Bylander projectors:   16
atom: -------------------------------------------------------------------------

atom: SANKEY-TYPE ORBITALS:
atom: Selected multiple-zeta basis: split     

SPLIT: Orbitals with angular momentum L= 0

SPLIT: Basis orbitals for state 5s

SPLIT: PAO cut-off radius determined from an
SPLIT: energy shift=  0.020000 Ry

   izeta = 1
                 lambda =    1.000000
                     rc =    6.684855
                 energy =   -0.305483
                kinetic =    0.327133
    potential(screened) =   -0.632616
       potential(ionic) =   -8.088030

   izeta = 2
                 rmatch =    6.279837
              splitnorm =    0.150000
                 energy =   -0.253539
                kinetic =    0.499634
    potential(screened) =   -0.753173
       potential(ionic) =   -8.691029

SPLIT: Orbitals with angular momentum L= 2

SPLIT: Basis orbitals for state 4d

SPLIT: PAO cut-off radius determined from an
SPLIT: energy shift=  0.020000 Ry

   izeta = 1
                 lambda =    1.000000
                     rc =    3.954440
                 energy =   -0.527442
                kinetic =    6.210364
    potential(screened) =   -6.737807
       potential(ionic) =  -18.733043

   izeta = 2
                 rmatch =    2.490121
              splitnorm =    0.150000
                 energy =   -0.148928
                kinetic =    8.576261
    potential(screened) =   -8.725189
       potential(ionic) =  -21.658221

POLgen: Perturbative polarization orbital with L=  1

POLgen: Polarization orbital for state 5s

   izeta = 1
                     rc =    6.684855
                 energy =   -0.001728
                kinetic =    0.597115
    potential(screened) =   -0.598843
       potential(ionic) =   -7.554613
atom: Total number of Sankey-type orbitals: 15

atm_pop: Valence configuration (for local Pseudopot. screening):
 5s( 1.00)                                                            
 5p( 0.00)                                                            
 4d(10.00)                                                            
Vna: chval, zval:   11.00000  11.00000

Vna:  Cut-off radius for the neutral-atom potential:   6.684855

atom: _________________________________________________________________________

prinput: Basis input ----------------------------------------------------------

PAO.BasisType split     

%block ChemicalSpeciesLabel
    1    1 H                       # Species index, atomic number, species label
    2    6 C                       # Species index, atomic number, species label
    3    9 F                       # Species index, atomic number, species label
    4   47 Ag                      # Species index, atomic number, species label
%endblock ChemicalSpeciesLabel

%block PAO.Basis                 # Define Basis set
H                     1                    # Species label, number of l-shells
 n=1   0   2 P   1                   # n, l, Nzeta, Polarization, NzetaPol
   4.709      3.760   
   1.000      1.000   
C                     2                    # Species label, number of l-shells
 n=2   0   2                         # n, l, Nzeta 
   4.088      3.347   
   1.000      1.000   
 n=2   1   2 P   1                   # n, l, Nzeta, Polarization, NzetaPol
   4.870      3.475   
   1.000      1.000   
F                     2                    # Species label, number of l-shells
 n=2   0   2                         # n, l, Nzeta 
   3.012      2.204   
   1.000      1.000   
 n=2   1   2 P   1                   # n, l, Nzeta, Polarization, NzetaPol
   3.588      2.260   
   1.000      1.000   
Ag                    2                    # Species label, number of l-shells
 n=5   0   2 P   1                   # n, l, Nzeta, Polarization, NzetaPol
   6.685      6.280   
   1.000      1.000   
 n=4   2   2                         # n, l, Nzeta 
   3.954      2.490   
   1.000      1.000   
%endblock PAO.Basis

prinput: ----------------------------------------------------------------------

Dumping basis to NetCDF file H.ion.nc
Dumping basis to NetCDF file C.ion.nc
Dumping basis to NetCDF file F.ion.nc
Dumping basis to NetCDF file Ag.ion.nc
coor:   Atomic-coordinates input format  =     Cartesian coordinates
coor:                                          (in Angstroms)

siesta: WARNING: XV file not found

siesta: Atomic coordinates (Bohr) and species
siesta:     12.79534  30.91026  30.00319  2        1
siesta:     12.56479  29.94461  28.20039  1        2
siesta:     11.02089  31.75686  30.58145  1        3
siesta:     13.35659  29.55722  31.44128  1        4
siesta:     14.80979  32.99274  29.73863  2        5
siesta:     14.20697  34.34390  27.64292  3        6
siesta:     14.44129  34.61980  31.68316  3        7
siesta:     17.64249  32.31433  29.58934  2        8
siesta:     17.98453  30.82334  30.98963  1        9
siesta:     17.97319  31.51309  27.70907  1       10
siesta:     19.67017  34.41382  29.98241  2       11
siesta:     21.93973  33.42360  29.26620  3       12
siesta:     19.27899  36.24118  28.22685  3       13
siesta:     20.07835  35.75174  32.55810  2       14
siesta:     21.71863  36.97629  32.35401  1       15
siesta:     18.44373  36.95928  32.89070  1       16
siesta:     20.46007  34.15114  34.98262  2       17
siesta:     20.45251  35.74796  36.96495  3       18
siesta:     18.36626  32.72440  35.39269  3       19
siesta:     22.80522  32.43527  35.26230  2       20
siesta:     22.22508  30.59090  34.59145  1       21
siesta:     24.24331  33.15904  34.00564  1       22
siesta:     24.02788  32.09134  37.87769  2       23
siesta:     24.94062  34.37035  38.67326  3       24
siesta:     22.20618  31.50553  39.59734  3       25
siesta:     26.21618  30.21295  38.19516  2       26
siesta:     27.44639  30.37925  36.53787  1       27
siesta:     27.28010  30.86491  39.82599  1       28
siesta:     25.67572  27.37080  38.55232  2       29
siesta:     23.30978  26.89270  37.70383  3       30
siesta:     27.25931  26.11225  36.95361  3       31
siesta:     25.96863  26.20862  41.21116  2       32
siesta:     27.84702  26.82467  41.89713  1       33
siesta:     24.53432  27.11380  42.39035  1       34
siesta:     25.74564  23.30600  41.60990  2       35
siesta:     25.47541  22.96963  44.14591  3       36
siesta:     23.50820  22.52554  40.65180  3       37
siesta:     27.75820  21.43139  40.65180  2       38
siesta:     26.79633  19.61536  40.50441  1       39
siesta:     28.31567  21.99264  38.76964  1       40
siesta:     30.21106  20.91739  42.15603  2       41
siesta:     29.65926  19.05223  43.84355  3       42
siesta:     31.91938  19.80623  40.58188  3       43
siesta:     31.59245  23.03955  43.60545  2       44
siesta:     30.14303  24.05622  44.65236  1       45
siesta:     32.83400  22.14382   0.31180  1       46
siesta:     33.18549  24.98408  42.13902  2       47
siesta:     32.42204  24.90849  39.67482  3       48
siesta:     32.47685  27.31411  42.93082  3       49
siesta:     36.07867  24.91416  42.23729  2       50
siesta:     36.67393  23.27199  41.15825  1       51
siesta:     36.75141  26.58846  41.26597  1       52
siesta:     37.50730  24.83101   0.09827  2       53
siesta:     39.70505  26.13870  44.46527  3       54
siesta:     36.15614  26.12736   1.82548  3       55
siesta:     38.26130  22.27988   1.30391  2       56
siesta:     36.96873  20.83235   0.58015  1       57
siesta:     40.14158  21.84146   0.59715  1       58
siesta:     38.36146  21.89249   4.18575  2       59
siesta:     36.19772  22.84113   5.22887  3       60
siesta:     38.15359  19.33380   4.59204  3       61
siesta:     40.67637  22.83924   5.70698  2       62
siesta:     42.33744  21.95107   4.87172  1       63
siesta:     40.86345  24.86503   5.35171  1       64
siesta:     40.87101  22.46696   8.60582  2       65
siesta:      0.11149  20.71519   8.98376  3       66
siesta:     41.81777  24.67227   9.51477  3       67
siesta:     38.61279  21.70540  10.26311  2       68
siesta:     37.31644  23.29466  10.29145  1       69
siesta:     37.62257  20.15016   9.32769  1       70
siesta:     38.97562  20.91172  13.03723  2       71
siesta:     40.48740  22.67294  14.08602  3       72
siesta:     36.72117  21.23108  14.24287  3       73
siesta:     40.04520  18.31334  13.90650  2       74
siesta:     42.05965  18.65349  14.33736  1       75
siesta:     39.11357  17.87871  15.69229  1       76
siesta:     39.89024  15.85859  12.32291  2       77
siesta:     39.97150  16.43118   9.82469  3       78
siesta:     42.10311  14.63782  12.70274  3       79
siesta:     37.80777  13.86304  12.73865  2       80
siesta:     38.32366  12.24354  11.57836  1       81
siesta:     37.92304  13.23943  14.68129  1       82
siesta:     34.99774  14.41673  12.21330  2       83
siesta:     33.68627  12.44952  13.17518  3       84
siesta:     34.33823  16.41795  13.70997  3       85
siesta:     33.98863  14.97420   9.52611  2       86
siesta:     31.94583  15.04412   9.63950  1       87
siesta:     34.65003  16.86770   9.00833  1       88
siesta:     34.65948  13.22620   7.29813  2       89
siesta:     36.98762  13.83280   6.46098  3       90
siesta:     34.86735  10.80357   8.15984  3       91
siesta:     32.87369  13.17896   5.00967  2       92
siesta:     31.27498  11.98465   5.48777  1       93
siesta:     32.16504  15.09136   4.72999  1       94
siesta:     33.83745  12.29645   2.40184  2       95
siesta:     31.71718  11.78623   0.98077  3       96
siesta:     34.88436  14.31468   1.23966  3       97
siesta:     35.65348  10.02311   2.12594  2       98
siesta:     36.93093  10.49554   0.59715  1       99
siesta:     36.78542   9.94941   3.84748  1      100
siesta:     34.69350   7.28868   1.64217  2      101
siesta:     33.31400   7.35671  44.17992  3      102
siesta:     36.75330   5.89595   1.01289  3      103
siesta:     33.26486   5.72209   3.64906  2      104
siesta:     33.91304   3.76434   3.46954  1      105
siesta:     33.86013   6.35137   5.50099  1      106
siesta:     30.37358   5.66162   3.63206  2      107
siesta:     29.65548   4.27456   5.66162  3      108
siesta:     29.59501   8.04268   4.09693  3      109
siesta:     28.91282   4.68274   1.28501  2      110
siesta:     28.37425   6.36460   0.20787  1      111
siesta:     30.26776   3.61883   0.13795  1      112
siesta:     26.52988   3.02356   1.50611  2      113
siesta:     24.67983   4.45976   2.62483  3      114
siesta:     25.70029   2.59837  43.79442  3      115
siesta:     26.52988   0.42519   2.85727  2      116
siesta:     26.61491   0.73510   4.88305  1      117
siesta:     24.69684  45.77485   2.48121  1      118
siesta:     28.63692  44.73739   2.29413  2      119
siesta:     30.94428  45.78997   2.77790  3      120
siesta:     28.43850  42.88168   4.02134  3      121
siesta:     28.76731  43.45427  44.36701  2      122
siesta:     28.82778  41.41147   0.04913  1      123
siesta:     26.98530  43.85489  43.41270  1      124
siesta:     30.89137  43.99851  42.47539  2      125
siesta:     30.40382  42.52830  40.38724  3      126
siesta:     30.72696   0.17952  41.62690  3      127
siesta:     33.67493  43.52797  43.20105  2      128
siesta:     34.45728  45.35156  43.78308  1      129
siesta:     33.67115  42.32421   0.16441  1      130
siesta:     35.57222  42.39224  41.25274  2      131
siesta:     35.36057  43.73584  39.07199  3      132
siesta:     37.96083  42.93082  42.02186  3      133
siesta:     35.44939  39.56899  40.50819  2      134
siesta:     33.93194  39.33655  39.17215  1      135
siesta:     37.21817  39.12302  39.50474  1      136
siesta:     35.06010  37.54131  42.56421  2      137
siesta:     36.46417  38.20083  44.61078  3      138
siesta:     32.62991  37.66415  43.40325  3      139
siesta:     35.57789  34.74074  41.96139  2      140
siesta:     33.77320  33.86202  41.50974  1      141
siesta:     36.76464  34.66893  40.29276  1      142
siesta:     36.88369  33.06644  43.96072  2      143
siesta:     37.32966  30.80633  42.80609  3      144
siesta:     39.23829  34.01130  44.44638  3      145
siesta:     35.52120  32.53354   1.78390  2      146
siesta:     34.25319  34.12847   2.12027  1      147
siesta:     34.34390  30.86680   1.42863  1      148
siesta:     37.04432  32.07622   4.23866  2      149
siesta:     38.94160  30.42460   3.72276  3      150
siesta:     38.25374  34.26264   4.89817  3      151
siesta:     35.63269  31.07845   6.61782  2      152
siesta:     34.74074  32.70361   7.49277  1      153
siesta:     34.17004  29.81044   5.96776  1      154
siesta:     37.10668  29.64226   8.67196  2      155
siesta:     35.60245  29.43061  10.75633  3      156
siesta:     37.32778  27.20073   7.91229  3      157
siesta:     39.71828  30.56822   9.59036  2      158
siesta:     40.45149  29.09990  10.85270  1      159
siesta:     40.98440  30.65515   7.97465  1      160
siesta:     40.00363  33.09101  11.02845  2      161
siesta:     37.99296  34.61602  10.50499  3      162
siesta:     39.78064  32.55055  13.53989  3      163
siesta:     42.40169  34.66893  10.60326  2      164
siesta:      1.37572  33.34045  10.80546  1      165
siesta:     42.40736  35.34167   8.67007  1      166
siesta:      0.50834  36.92526  12.30968  2      167
siesta:     42.44705  36.42260  14.74554  3      168
siesta:      3.06703  37.06699  12.39283  3      169
siesta:     42.03697  39.57466  11.70119  2      170
siesta:     41.33022  39.49151   9.77178  1      171
siesta:     40.41181  39.88835  12.88416  1      172
siesta:      1.13195  41.96139  11.84670  2      173
siesta:      2.56436  42.01241   9.72831  3      174
siesta:     42.12579  43.97772  11.64450  3      175
siesta:      2.88183  42.45838  14.13705  2      176
siesta:      1.65729  42.23729  15.78489  1      177
siesta:      4.29346  40.99196  14.18051  1      178
siesta:      4.28212  45.00007  14.44507  2      179
siesta:      4.00433   0.13984  12.28511  3      180
siesta:      2.98010   0.07559  16.23086  3      181
siesta:      7.07136  44.97172  15.25199  2      182
siesta:      7.08459  44.70527  17.28533  1      183
siesta:      7.99732  43.33144  14.42240  1      184
siesta:      8.86471   1.02612  14.82113  2      185
siesta:      7.46820   3.10482  14.19185  3      186
siesta:      9.80390   1.61005  17.14171  3      187
siesta:     11.15884   0.94486  13.01833  2      188
siesta:     11.43663   2.85727  12.33047  1      189
siesta:     12.81802   0.49889  14.15783  1      190
siesta:     11.22120  45.46305  10.69207  2      191
siesta:     13.05045   0.10960   9.13683  3      192
siesta:     12.09047  43.17270  11.43474  3      193
siesta:      8.81747  45.01707   9.08959  2      194
siesta:      7.70820  43.50529   9.98532  1      195
siesta:      7.68741   0.50456   9.20864  1      196
siesta:      8.96486  44.35567   6.25878  2      197
siesta:      6.77278  43.13869   5.72209  3      198
siesta:      8.85526   0.29480   4.95297  3      199
siesta:     11.14372  42.73050   5.16273  2      200
siesta:     12.93896  43.66592   5.58603  1      201
siesta:     11.14561  40.92959   6.19641  1      202
siesta:     11.19096  42.07288   2.32814  2      203
siesta:     10.22720  44.03820   0.99967  3      204
siesta:     13.63060  42.05209   1.61383  3      205
siesta:      9.88516  39.61623   1.37194  2      206
siesta:      7.85937  39.82788   1.69509  1      207
siesta:     10.11193  39.55576  44.01930  1      208
siesta:     10.64672  37.00652   2.36783  2      209
siesta:      9.71509  36.78731   4.76778  3      210
siesta:      9.31824  35.29632   1.01100  3      211
siesta:     13.44919  36.12780   2.37350  2      212
siesta:     13.93485  35.54198   0.46109  1      213
siesta:     14.62838  37.74918   2.82892  1      214
siesta:     14.32035  34.00186   4.17063  2      215
siesta:     16.54456  33.03243   3.23899  3      216
siesta:     14.88727  35.13569   6.38917  3      217
siesta:     12.58558  31.72285   4.77345  2      218
siesta:     10.61838  32.36913   4.92841  1      219
siesta:     12.65550  30.42271   3.18419  1      220
siesta:     13.10148  30.12792   7.17151  2      221
siesta:     11.85615  27.89048   6.91073  3      222
siesta:     15.61670  29.52698   7.08837  3      223
siesta:     12.61204  31.14837   9.88705  2      224
siesta:     13.42651  29.73296  11.15695  1      225
siesta:     13.68918  32.88125  10.08736  1      226
siesta:      9.91918  31.69450  10.86026  2      227
siesta:      8.29968  30.03343   9.72642  3      228
siesta:      9.86626  31.01987  13.31691  3      229
siesta:      8.58881  34.32311  10.72231  2      230
siesta:      7.85182  34.52909   8.80424  1      231
siesta:      6.97687  34.26075  12.01677  1      232
siesta:     10.00232  36.82700  11.33458  2      233
siesta:     11.65584  37.29565   9.42974  3      234
siesta:      8.29590  38.73373  11.07947  3      235
siesta:     11.48576  37.20494  13.84792  2      236
siesta:     12.85959  35.70261  13.98587  1      237
siesta:     12.56479  38.95105  13.67595  1      238
siesta:     10.05524  37.29376  16.38204  2      239
siesta:      7.95386  38.73751  16.09858  3      240
siesta:      9.13494  34.93727  16.85825  3      241
siesta:     11.44986  38.11768  18.81601  2      242
siesta:     10.02500  38.23484  20.30323  1      243
siesta:     12.75377  36.59834  19.32813  1      244
siesta:     12.87660  40.64614  18.93128  2      245
siesta:     11.78623  42.24295  17.25321  3      246
siesta:     12.32102  41.69304  21.21407  3      247
siesta:     15.77544  40.76519  18.61759  2      248
siesta:     16.60881  40.14158  20.39015  1      249
siesta:     16.32535  39.38380  17.17384  1      250
siesta:     17.12093  43.23884  17.89949  2      251
siesta:     19.64749  42.71350  17.85414  3      252
siesta:     16.51810  43.77363  15.45986  3      253
siesta:     16.71274  45.67281  19.46608  2      254
siesta:     17.47052   1.01289  18.37003  1      255
siesta:     14.67184  45.93548  19.58891  1      256
siesta:     17.76532  45.91469  22.17594  2      257
siesta:     17.65950  43.62057  23.31734  3      258
siesta:     20.30701   0.09260  21.92461  3      259
siesta:     16.67306   1.67808  24.02221  2      260
siesta:     18.30389   2.68719  24.81778  1      261
siesta:     15.60725   3.01600  22.89971  1      262
siesta:     14.93262   0.84471  26.20673  2      263
siesta:     13.77989   2.98388  27.04766  3      264
siesta:     13.00888  45.72950  25.18250  3      265
siesta:     15.97197  45.72950  28.59157  2      266
siesta:     17.90894   0.16063  28.87692  1      267
siesta:     14.82302   0.14929  30.15248  1      268
siesta:     16.12882  42.82877  28.83723  2      269
siesta:     18.41539  42.06910  27.96229  3      270
siesta:     16.19118  42.25429  31.34112  3      271
siesta:     14.16161  41.01085  27.63726  2      272
siesta:     14.15783  41.39825  25.60769  1      273
siesta:     14.91750  39.10412  27.92638  1      274
siesta:     11.39505  40.93904  28.52732  2      275
siesta:     10.97553  43.01774  29.96918  3      276
siesta:      9.92107  41.27164  26.44295  3      277
siesta:     10.39917  38.63736  30.03532  2      278
siesta:     10.89050  36.95739  28.97896  1      279
siesta:     11.49710  38.53531  31.77954  1      280
siesta:      7.59292  38.38980  30.74019  2      281
siesta:      6.41751  37.33911  28.72763  3      282
siesta:      7.47009  36.56810  32.60535  3      283
siesta:      6.05846  40.71983  31.57734  2      284
siesta:      7.20175  41.70249  32.94172  1      285
siesta:      5.87894  41.96328  29.93516  1      286
siesta:      3.37694  40.51763  32.70739  2      287
siesta:      1.85004  41.77619  31.05199  3      288
siesta:      2.58893  38.07611  32.55432  3      289
siesta:      2.80813  41.55131  35.39269  2      290
siesta:      4.16496  40.65180  36.66826  1      291
siesta:      3.17285  43.58088  35.37758  1      292
siesta:      0.12661  41.18660  36.46606  2      293
siesta:     42.30532  38.65814  36.74763  3      294
siesta:      0.21354  42.02375  38.92837  3      295
siesta:     40.40992  42.48106  35.20750  2      296
siesta:     39.25530  43.19160  36.76086  1      297
siesta:     41.10345  44.15347  34.17382  1      298
siesta:     38.59956  41.04865  33.39525  2      299
siesta:     38.51263  38.57122  34.04721  3      300
siesta:     36.24118  41.88013  33.92249  3      301
siesta:     38.89436  41.16014  30.48318  2      302
siesta:     40.00174  42.85712  30.07122  1      303
siesta:     40.02819  39.52742  29.91816  1      304
siesta:     36.52842  41.23573  28.75975  2      305
siesta:     37.35045  40.78409  26.37114  3      306
siesta:     35.08656  39.19671  29.28510  3      307
siesta:     34.79365  43.58088  28.66716  2      308
siesta:     33.71084  43.44860  26.90215  1      309
siesta:     33.46328  43.41648  30.21106  1      310
siesta:     35.90481   0.03213  28.80133  2      311
siesta:     36.90637   0.48566  31.13325  3      312
siesta:     37.92493   0.06803  27.18561  3      313
siesta:     34.23996   2.32436  28.06622  2      314
siesta:     35.50041   3.97788  27.96607  1      315
siesta:     33.53887   1.96343  26.15382  1      316
siesta:     31.90048   3.07648  29.63281  2      317
siesta:     30.75153   4.93219  28.30055  3      318
siesta:     30.19595   1.13006  29.55722  3      319
siesta:     32.10646   4.09504  32.36535  2      320
siesta:     33.63903   5.47643  32.35590  1      321
siesta:     30.37169   5.16273  32.72818  1      322
siesta:     32.50519   2.37350  34.64625  2      323
siesta:     30.40004   2.54924  36.11268  3      324
siesta:     32.49385  46.19437  33.86580  3      325
siesta:     34.79176   2.61349  36.43960  2      326
siesta:     34.20028   1.92752  38.27831  1      327
siesta:     36.23551   1.33982  35.73096  1      328
siesta:     36.00686   5.23643  36.88936  2      329
siesta:     37.54131   5.78067  34.90137  3      330
siesta:     34.13225   7.00711  36.79298  3      331
siesta:     37.56777   5.78823  39.31955  2      332
siesta:     38.75830   7.41718  38.89436  1      333
siesta:     36.25252   6.31358  40.80298  1      334
siesta:     39.31955   3.74355  40.44960  2      335
siesta:     37.85123   2.07114  41.71572  3      336
siesta:     40.27386   2.34704  38.52397  3      337
siesta:     41.45305   4.57692  42.26563  2      338
siesta:     41.60045   6.63294  42.18059  1      339
siesta:     40.82944   4.11205  44.19882  1      340
siesta:      1.56091   3.52434  41.99162  2      341
siesta:      2.74577   4.93030  40.18504  3      342
siesta:      2.77601   4.10071  44.17992  3      343
siesta:      1.99555   0.68597  41.40770  2      344
siesta:      0.23244  45.94115  41.68549  1      345
siesta:      2.44342   0.56503  39.41025  1      346
siesta:      4.07803  45.34400  42.71917  2      347
siesta:      4.59393  43.32766  41.18093  3      348
siesta:      6.24933   0.48188  42.65680  3      349
siesta:      3.70009  44.39157   0.75967  2      350
siesta:      5.50666  43.69993   1.38895  1      351
siesta:      3.23143  46.05642   1.94453  1      352
siesta:      1.74422  42.31476   1.43430  2      353
siesta:      1.49855  42.33366   3.98921  3      354
siesta:     42.00296  43.09333   0.64062  3      355
siesta:      2.12972  39.51986   0.59715  2      356
siesta:      0.50078  39.05121  44.09489  1      357
siesta:      3.76623  39.50663  44.04764  1      358
siesta:      2.37728  37.31833   2.50200  2      359
siesta:      4.26511  37.84934   4.14417  3      360
siesta:      0.29669  37.25219   4.01189  3      361
siesta:      2.85160  34.61980   1.52501  2      362
siesta:      1.15084  34.14170   0.46109  1      363
siesta:      4.39928  34.68216   0.18519  1      364
siesta:      3.41663  32.35968   3.29568  2      365
siesta:      5.88461  32.47874   3.98354  3      366
siesta:      2.05413  32.64881   5.43108  3      367
siesta:      2.90073  29.67438   2.23744  2      368
siesta:      0.85416  29.55344   2.04279  1      369
siesta:      3.69820  29.59879   0.31936  1      370
siesta:      3.77378  27.29333   3.66040  2      371
siesta:      3.00467  27.47096   6.11516  3      372
siesta:      2.42641  25.30344   2.77601  3      373
siesta:      6.58948  26.51476   3.63583  2      374
siesta:      7.55702  27.85646   4.88116  1      375
siesta:      6.72743  24.65905   4.52401  1      376
siesta:      8.07858  26.41082   1.12628  2      377
siesta:      8.06535  28.75975   0.08504  3      378
siesta:     10.59759  26.02721   1.65918  3      379
siesta:      7.26978  24.55889  43.73395  2      380
siesta:      5.23454  24.35480  43.88513  1      381
siesta:      7.66284  25.51887  41.95950  1      382
siesta:      8.36582  21.85280  43.51096  2      383
siesta:      9.96642  21.89249  41.49084  3      384
siesta:      9.93240  21.39171   0.78424  3      385
siesta:      6.64806  19.49253  43.14624  2      386
siesta:      5.97910  19.52655  41.19416  1      387
siesta:      7.86126  17.82579  43.33522  1      388
siesta:      4.28212  19.04089   0.12661  2      389
siesta:      4.72810  20.03299   2.46042  3      390
siesta:      2.39050  20.49787  43.85300  3      391
siesta:      3.28246  16.32346   0.40629  2      392
siesta:      2.92908  15.62615  43.19349  1      393
siesta:      4.80180  15.19529   1.25289  1      394
siesta:      0.87494  15.79623   1.93886  2      395
siesta:     41.68360  17.52911   1.23021  3      396
siesta:     42.48106  13.56446   1.15462  3      397
siesta:      0.93730  15.75654   4.86416  2      398
siesta:      2.03335  17.41194   5.46698  1      399
siesta:     41.60045  16.07402   5.53123  1      400
siesta:      2.03524  13.49643   6.30980  2      401
siesta:      4.40684  13.06179   5.40840  3      402
siesta:      2.51334  14.29389   8.70597  3      403
siesta:      0.55180  10.97553   6.58381  2      404
siesta:      0.93353  10.31224   8.48487  1      405
siesta:     41.12802  11.43663   6.53468  1      406
siesta:      0.97699   8.71920   4.80747  2      407
siesta:     41.27919   8.26567   3.63206  3      408
siesta:      2.52279   9.36171   2.87050  3      409
siesta:      1.85571   6.13594   5.83737  2      410
siesta:      0.62550   5.68430   7.42852  1      411
siesta:      1.48155   4.77534   4.34259  1      412
siesta:      4.59015   5.66162   6.72932  2      413
siesta:      4.42007   4.04402   8.71353  3      414
siesta:      5.70886   4.31614   4.84526  3      415
siesta:      6.36082   7.85937   7.47387  2      416
siesta:      6.70475   8.95164   5.77690  1      417
siesta:      5.31580   8.99321   8.84203  1      418
siesta:      8.97242   7.38316   8.73810  2      419
siesta:      8.69085   7.63072  11.27222  3      420
siesta:      9.61493   4.92085   8.42818  3      421
siesta:     11.34592   8.89683   7.95008  2      422
siesta:     12.80101   8.38661   9.32391  1      423
siesta:     11.98087   8.20708   6.10004  1      424
siesta:     11.32513  11.82213   7.79323  2      425
siesta:      9.69619  12.48354   5.89784  3      426
siesta:     10.28956  12.71975   9.98154  3      427
siesta:     13.83091  13.25832   7.30757  2      428
siesta:     14.16350  14.46586   8.93274  1      429
siesta:     15.33135  11.82780   7.23010  1      430
siesta:     14.17484  14.91183   4.93597  2      431
siesta:     16.63527  15.68473   4.86416  3      432
siesta:     14.02744  13.31880   2.92152  3      433
siesta:     12.43629  17.18518   4.28212  2      434
siesta:     13.15628  18.04689   2.55680  1      435
siesta:     10.59759  16.40661   3.83615  1      436
siesta:     11.97898  19.37726   6.15862  2      437
siesta:      9.48454  19.96685   5.91862  3      438
siesta:     12.13016  18.43995   8.55857  3      439
siesta:     13.43407  21.89438   6.06791  2      440
siesta:     12.83125  22.86947   4.34637  1      441
siesta:     12.69519  23.03010   7.63828  1      442
siesta:     16.31968  21.93784   6.20586  2      443
siesta:     17.03400  24.20551   7.18474  3      444
siesta:     16.98487  20.24275   8.02756  3      445
siesta:     17.99398  21.39549   3.90229  2      446
siesta:     19.66261  20.37126   4.58448  1      447
siesta:     16.95463  20.11992   2.66829  1      448
siesta:     19.00309  23.57623   2.21665  2      449
siesta:     21.14226  24.51165   3.31836  3      450
siesta:     19.82323  22.46885   0.04346  3      451
siesta:     17.29289  25.84390   1.51367  2      452
siesta:     15.38994  25.10502   1.19053  1      453
siesta:     17.23053  27.07223   3.18797  1      454
siesta:     17.99398  27.54277  43.95127  2      455
siesta:     16.41417  29.57801  43.97583  3      456
siesta:     20.31267  28.56322  44.50496  3      457
siesta:     17.98831  26.61302  41.17715  2      458
siesta:     18.51176  28.23063  39.97717  1      459
siesta:     19.54922  25.27510  40.95605  1      460
siesta:     15.59970  25.40171  40.03008  2      461
siesta:     16.27055  24.12236  37.91926  3      462
siesta:     14.90050  23.52710  41.67226  3      463
siesta:     13.20352  26.97018  39.46506  2      464
siesta:     11.76733  25.65115  38.75641  1      465
siesta:     12.53078  27.65237  41.27352  1      466
siesta:     13.30557  29.21896  37.59990  2      467
siesta:     15.32191  28.85802  36.02386  3      468
siesta:     11.22876  28.92983  36.09189  3      469
siesta:     13.39816  31.99119  38.48240  2      470
siesta:     15.27088  32.37102  39.23073  1      471
siesta:     13.22053  33.14392  36.77220  1      472
siesta:     11.50277  33.04376  40.45149  2      473
siesta:     12.09614  31.98741  42.73239  3      474
siesta:     12.03189  35.55332  40.77842  3      475
siesta:      8.60393  32.80755  40.11701  2      476
siesta:      8.27322  31.14837  38.93971  1      477
siesta:      7.82536  32.43338  41.96328  1      478
siesta:      7.04301  35.02798  39.00207  2      479
siesta:      6.58003  36.70228  40.90881  3      480
siesta:      8.54534  36.29787  37.36746  3      481
siesta:      4.56369  34.45917  37.61690  2      482
siesta:      4.05346  36.16559  36.55488  1      483
siesta:      4.92085  32.93605  36.28654  1      484
siesta:      2.19964  33.68816  39.17404  2      485
siesta:      2.89884  31.80221  40.78598  3      486
siesta:      1.54580  35.71017  40.67070  3      487
siesta:     42.33366  32.80944  37.86068  2      488
siesta:     40.81243  33.03810  39.19671  1      489
siesta:     41.96894  34.09067  36.29598  1      490
siesta:     42.10311  30.12414  36.79298  2      491
siesta:     40.23229  30.20539  35.04876  3      492
siesta:      1.62705  29.64037  35.42860  3      493
siesta:     41.53242  27.87536  38.58255  2      494
siesta:     41.09022  28.68794  40.44016  1      495
siesta:     39.77875  27.05333  37.82477  1      496
siesta:      0.85416  25.70029  39.00963  2      497
siesta:      2.49633  26.43161  40.85778  3      498
siesta:     42.11445  23.82190  40.17559  3      499
siesta:      2.31303  24.40771  36.80621  2      500
siesta:      2.05602  22.38948  37.04999  1      501
siesta:      1.34738  24.94439  35.06955  1      502
siesta:      5.18352  24.84235  36.42449  2      503
siesta:      5.89028  27.01554  37.61123  3      504
siesta:      6.35137  22.99609  37.76052  3      505
siesta:      6.32492  24.76298  33.73351  2      506
siesta:      8.30535  24.29811  33.94705  1      507
siesta:      5.45564  23.18884  32.72818  1      508
siesta:      6.28334  27.06656  31.94205  2      509
siesta:      6.57814  29.23219  33.29321  3      510
siesta:      8.41306  26.85869  30.50397  3      511
siesta:      4.03835  27.45773  30.12792  2      512
siesta:      4.03835  25.89304  28.79944  1      513
siesta:      2.30925  27.34813  31.24474  1      514
siesta:      3.88528  29.92760  28.56889  2      515
siesta:      6.26444  30.63625  27.88103  3      516
siesta:      2.73821  29.31911  26.34657  3      517
siesta:      2.56058  32.29921  29.65359  2      518
siesta:      2.98199  32.36913  31.66048  1      519
siesta:      3.45631  33.94327  28.78621  1      520
siesta:     42.25996  32.68094  29.36636  2      521
siesta:     41.15825  30.42460  29.89737  3      522
siesta:     41.44171  34.25130  31.24852  3      523
siesta:     41.06377  33.60879  26.85113  2      524
siesta:     40.75763  31.95528  25.66249  1      525
siesta:     39.21939  34.31744  27.33490  1      526
siesta:     42.33555  35.68182  25.25998  2      527
siesta:     40.46850  37.05943  24.13370  3      528
siesta:      0.84660  37.32022  26.89837  3      529
siesta:      1.63083  34.88058  23.15860  2      530
siesta:      2.03524  32.89637  23.47986  1      531
siesta:      0.62172  35.02042  21.38604  1      532
siesta:      4.17441  36.19961  22.74475  2      533
siesta:      5.85815  35.01097  24.28866  3      534
siesta:      4.95675  35.61001  20.37692  3      535
siesta:      4.54668  39.08711  23.06223  2      536
siesta:      4.22921  39.56143  25.04833  1      537
siesta:      6.56491  39.44238  22.67294  1      538
siesta:      3.03868  40.92581  21.38226  2      539
siesta:      4.68463  41.82910  19.65694  3      540
siesta:      1.36249  39.60112  19.97441  3      541
siesta:      1.59682  43.21616  22.48397  2      542
siesta:      1.00911  44.38779  20.85125  1      543
siesta:     42.48295  42.45082  23.37592  1      544
siesta:      2.78357  45.03219  24.43984  2      545
siesta:      0.88628   0.37984  25.14471  3      546
siesta:      3.25978  43.73584  26.61113  3      547
siesta:      5.13628   0.38172  23.81245  2      548
siesta:      6.33247   0.46487  25.47919  1      549
siesta:      6.18697  45.51785  22.36870  1      550
siesta:      4.88305   3.12372  22.82412  2      551
siesta:      3.38072   3.04624  20.75109  3      552
siesta:      3.52056   4.53723  24.49653  3      553
siesta:      7.26033   4.67518  22.11169  2      554
siesta:      8.52645   3.37316  21.14226  1      555
siesta:      6.69530   6.09815  20.76432  1      556
siesta:      8.86471   5.98099  24.14504  2      557
siesta:      8.54346   4.66196  26.35224  3      558
siesta:     11.33458   5.56525  23.52899  3      559
siesta:      8.52078   8.80613  24.79133  2      560
siesta:      7.17529   9.64328  23.47419  1      561
siesta:      7.65528   8.85715  26.63192  1      562
siesta:     10.78089  10.62593  24.86314  2      563
siesta:     11.80323  10.59192  22.52176  3      564
siesta:      9.85682  13.03912  25.10313  3      565
siesta:     12.96353  10.34625  26.79066  2      566
siesta:     13.97831   8.61526  26.30500  1      567
siesta:     14.25043  11.93174  26.47696  1      568
siesta:     12.43062  10.27445  29.63281  2      569
siesta:     10.55979  11.95630  30.11847  3      570
siesta:     11.42907   7.96898  30.13736  3      571
siesta:     14.56979  10.77144  31.55844  2      572
siesta:     15.46741  12.56290  31.06333  1      573
siesta:     13.63816  11.04923  33.38203  1      574
siesta:     16.72030   8.80991  31.97040  2      575
siesta:     16.64660   8.07480  34.43838  3      576
siesta:     16.19685   6.66129  30.67783  3      577
siesta:     19.49820   9.49777  31.41671  2      578
siesta:     20.09725  10.93963  32.76219  1      579
siesta:     20.60369   7.80835  31.85135  1      580
siesta:     20.31645  10.38783  28.73519  2      581
siesta:     19.33758   8.73243  27.03065  3      582
siesta:     19.15994  12.62527  28.23630  3      583
siesta:     23.15293  10.79034  28.08512  2      584
siesta:     23.19829  11.11537  26.05555  1      585
siesta:     23.77276  12.54968  28.96573  1      586
siesta:     25.17305   8.73999  28.62558  2      587
siesta:     27.26876   9.39383  27.26498  3      588
siesta:     25.93650   9.07069  31.05577  3      589
siesta:     24.66472   5.89406  28.24575  2      590
siesta:     26.17461   4.88872  29.20762  1      591
siesta:     22.88459   5.40273  29.17171  1      592
siesta:     24.47763   4.68085  25.60391  2      593
siesta:     23.04711   2.55869  25.84768  3      594
siesta:     23.04711   6.28901  24.19417  3      595
siesta:     26.92861   4.01756  24.11858  2      596
siesta:     28.17961   5.65595  24.19984  1      597
siesta:     27.81111   2.45098  25.16360  1      598
siesta:     26.80956   3.19364  21.31423  2      599
siesta:     24.37370   2.96876  20.58857  3      600
siesta:     27.67505   5.15517  19.91016  3      601
siesta:     28.23819   0.81258  20.42039  2      602
siesta:     28.74841   1.16785  18.47019  1      603
siesta:     29.99186   0.62172  21.49942  1      604
siesta:     26.97396  44.43882  20.48653  2      605
siesta:     25.39982  44.25740  18.48531  3      606
siesta:     28.83912  42.76263  19.92339  3      607
siesta:     25.56611  43.43915  22.79011  2      608
siesta:     24.61180  45.04920  23.63292  1      609
siesta:     24.05811  42.22028  22.07201  1      610
siesta:     26.96073  42.05398  24.97652  2      611
siesta:     28.82778  43.60356  25.84957  3      612
siesta:     25.26943  41.89902  26.90215  3      613
siesta:     28.13236  39.41403  24.59857  2      614
siesta:     29.00353  39.35545  22.76365  1      615
siesta:     29.68761  39.27797  25.94406  1      616
siesta:     26.55255  36.96306  24.85180  2      617
siesta:     27.86591  35.09412  23.64426  3      618
siesta:     26.54121  36.23551  27.33490  3      619
siesta:     23.81245  36.77031  23.91449  2      620
siesta:     23.10758  34.98451  24.67227  1      621
siesta:     22.72775  38.28965  24.81022  1      622
siesta:     23.17183  36.79298  21.06101  2      623
siesta:     20.99676  38.12902  20.78889  3      624
siesta:     24.96518  38.15170  19.84024  3      625
siesta:     22.86192  34.32878  19.55867  2      626
siesta:     22.38570  34.82767  17.64249  1      627
siesta:     24.69306  33.42360  19.53978  1      628
siesta:     20.92684  32.32378  20.43551  2      629
siesta:     22.29122  30.52665  21.66572  3      630
siesta:     19.43395  33.29321  22.29878  3      631
siesta:     19.26954  30.91971  18.50232  2      632
siesta:     20.43362  30.67405  16.80534  1      633
siesta:     18.85381  29.07156  19.26766  1      634
siesta:     16.75054  32.05922  17.57257  2      635
siesta:     16.78644  34.61413  17.81446  3      636
siesta:     16.67684  31.69450  15.00821  3      637
siesta:     14.19941  31.06522  18.63271  2      638
siesta:     12.71975  31.94583  17.55745  1      639
siesta:     14.15027  29.04888  18.18484  1      640
siesta:     13.48887  31.33356  21.45785  2      641
siesta:     14.79467  29.57612  22.84113  3      642
siesta:     14.35059  33.60501  22.31389  3      643
siesta:     10.72420  31.19750  22.32145  2      644
siesta:     10.69774  31.73607  24.31701  1      645
siesta:      9.66784  32.59212  21.28210  1      646
siesta:      9.23698  28.69172  22.11925  2      647
siesta:      6.75199  29.33612  22.22697  3      648
siesta:      9.56013  27.76765  19.74576  3      649
siesta:      9.64706  26.57145  24.06000  2      650
siesta:     11.51789  26.85113  24.88014  1      651
siesta:      8.25622  26.84924  25.53966  1      652
siesta:      9.54690  23.76143  23.28521  2      653
siesta:     11.48765  23.27199  21.65816  3      654
siesta:     10.10626  22.38381  25.38470  3      655
siesta:      7.11860  22.60869  22.15705  2      656
siesta:      6.01122  24.15449  21.41438  1      657
siesta:      7.71198  21.42572  20.57157  1      658
siesta:      5.31769  20.96652  23.78599  2      659
siesta:      5.08526  22.11736  26.06689  3      660
siesta:      2.96498  21.17628  22.74475  3      661
siesta:      5.85248  18.12248  24.19984  2      662
siesta:      4.85849  17.15305  22.68617  1      663
siesta:      7.86693  17.80123  23.90882  1      664
siesta:      5.15706  16.85258  26.73019  2      665
siesta:      2.75144  17.50643  27.40104  3      666
siesta:      5.01722  14.32602  26.30689  3      667
siesta:      6.90695  17.21163  29.02620  2      668
siesta:      8.61526  16.16661  28.62747  1      669
siesta:      7.40395  19.23175  29.06400  1      670
siesta:      6.05091  16.48787  31.72473  2      671
siesta:      4.37661  18.26421  32.52220  3      672
siesta:      4.68463  14.31279  31.63025  3      673
siesta:      7.99543  16.12882  33.87902  2      674
siesta:      6.95042  16.31212  35.65348  1      675
siesta:      8.67952  14.19185  33.79777  1      676
siesta:     10.31602  17.87304  34.05855  2      677
siesta:     12.24543  16.79400  32.70928  3      678
siesta:      9.79634  20.08024  32.87747  3      679
siesta:     11.32135  18.65916  36.68338  2      680
siesta:     12.37393  20.38070  36.38480  1      681
siesta:      9.66784  19.10514  37.83800  1      682
siesta:     12.97486  16.81290  38.24996  2      683
siesta:     11.75221  16.54267  40.51008  3      684
siesta:     12.81613  14.46964  37.17093  3      685
siesta:     15.80757  17.36659  38.78475  2      686
siesta:     16.90172  16.31023  37.42037  1      687
siesta:     16.12693  19.38482  38.44082  1      688
siesta:     16.98109  16.83180  41.39825  2      689
siesta:     19.42072  17.58958  41.31510  3      690
siesta:     15.90394  18.43995  43.09144  3      691
siesta:     16.90739  14.18996  42.61712  2      692
siesta:     17.56312  14.46964  44.55031  1      693
siesta:     14.91183  13.63060  42.68137  1      694
siesta:     18.35492  11.94496  41.42848  2      695
siesta:     17.37415   9.82658  42.52641  3      696
siesta:     17.60659  11.79945  38.98318  3      697
siesta:     21.26510  11.80134  41.47950  2      698
siesta:     21.82446  10.36515  40.13024  1      699
siesta:     21.96807  13.62115  40.79164  1      700
siesta:     22.63137  11.18907  44.00607  2      701
siesta:     21.55800   9.05368   0.27401  3      702
siesta:     25.01620  10.41995  43.38435  3      703
siesta:     22.86947  13.10337   1.51745  2      704
siesta:     21.06856  13.18462   2.48877  1      705
siesta:     24.19606  12.27756   2.84026  1      706
siesta:     23.72741  15.84725   1.08281  2      707
siesta:     24.53432  16.08536  43.34844  3      708
siesta:     21.63548  17.34769   1.20376  3      709
siesta:     25.81745  17.03967   2.71743  2      710
siesta:     27.61647  16.14394   2.19775  1      711
siesta:     25.88548  19.01443   2.14862  1      712
siesta:     25.66249  17.07368   5.62761  2      713
siesta:     23.27766  16.35181   6.33247  3      714
siesta:     27.18561  15.15939   6.46287  3      715
siesta:     26.35035  19.46419   7.17718  2      716
siesta:     24.84235  20.84180   6.88994  1      717
siesta:     26.29744  18.88404   9.15384  1      718
siesta:     28.90148  20.81345   6.74066  2      719
siesta:     30.76475  19.06356   6.59704  3      720
siesta:     28.85613  21.90382   4.38606  3      721
siesta:     29.76320  22.93939   8.53968  2      722
siesta:     31.12002  24.13937   7.50033  1      723
siesta:     28.11347  24.11858   8.92707  1      724
siesta:     30.95940  22.32523  11.13049  2      725
siesta:     29.44950  20.67172  12.34937  3      726
siesta:     33.12502  21.00809  10.72798  3      727
siesta:     31.59812  24.45873  13.02022  2      728
siesta:     31.61702  23.60836  14.88916  1      729
siesta:     33.51053  25.11825  12.62338  1      730
siesta:     29.95406  26.86247  13.17707  2      731
siesta:     30.35279  28.15126  11.01333  3      732
siesta:     27.48230  26.12736  13.18462  3      733
siesta:     30.32256  28.74841  15.37293  2      734
siesta:     30.28665  27.64859  17.13226  1      735
siesta:     32.19717  29.54021  15.15372  1      736
siesta:     28.51031  30.99719  15.71686  2      737
siesta:     26.33712  30.04288  16.65038  3      738
siesta:     29.49108  32.43716  17.61792  3      739
siesta:     27.82812  32.77353  13.50588  2      740
siesta:     27.14026  31.54143  11.99788  1      741
siesta:     26.25020  33.93949  14.12760  1      742
siesta:     29.77454  34.54988  12.26055  2      743
siesta:     32.13481  33.51431  12.56101  3      744
siesta:     29.41738  34.44972   9.68485  3      745
siesta:     30.01831  37.34856  13.03912  2      746
siesta:     30.16949  37.40525  15.09892  1      747
siesta:     31.80221  38.02508  12.20764  1      748
siesta:     27.95851  39.29687  12.29645  2      749
siesta:     27.92071  39.62379   9.73965  3      750
siesta:     25.67383  38.28587  12.86715  3      751
siesta:     27.98497  41.94816  13.52855  2      752
siesta:     26.07634  42.70027  13.41139  1      753
siesta:     28.32890  41.59856  15.54111  1      754
siesta:     29.86335  44.02308  12.61771  2      755
siesta:     30.94806  45.03030  14.71152  3      756
siesta:     31.84757  42.88735  11.48765  3      757
siesta:     29.02620  46.19815  10.87160  2      758
siesta:     30.74019   0.74077  10.04390  1      759
siesta:     27.96040  45.34967   9.30502  1      760
siesta:     27.41994   2.19019  11.91851  2      761
siesta:     26.17083   3.22009   9.96075  3      762
siesta:     25.55667   1.19809  13.39438  3      763
siesta:     28.67283   4.35960  13.42273  2      764
siesta:     27.19128   5.37816  14.43751  1      765
siesta:     29.91060   3.47899  14.80412  1      766
siesta:     30.29043   6.42885  12.09425  2      767
siesta:     31.76820   7.50411  13.89516  3      768
siesta:     31.98174   5.30635  10.51822  3      769
siesta:     29.03565   8.58314  10.58814  2      770
siesta:     30.49263  10.00421  10.20075  1      771
siesta:     28.46685   7.74977   8.79290  1      772
siesta:     26.74908  10.05335  11.60859  2      773
siesta:     26.96640  10.11004  14.15405  3      774
siesta:     26.99097  12.53078  10.94341  3      775
siesta:     24.01276   9.19730  11.00766  2      776
siesta:     23.82946   7.26978  11.72576  1      777
siesta:     22.74097  10.37838  12.10181  1      778
siesta:     23.00365   9.21242   8.29023  2      779
siesta:     21.67895  11.38749   7.92174  3      780
siesta:     24.97274   9.40895   6.64239  3      781
siesta:     21.35580   6.98821   7.35104  2      782
siesta:     21.04022   7.35293   5.34037  1      783
siesta:     22.42350   5.24399   7.54946  1      784
siesta:     18.74042   6.52901   8.55479  2      785
siesta:     18.55712   7.94252  10.70530  3      786
siesta:     16.98864   7.57780   6.95797  3      787
siesta:     17.75209   3.83237   9.16518  2      788
siesta:     15.77544   4.06102   9.77178  1      789
siesta:     17.76532   2.74766   7.40962  1      790
siesta:     19.01632   2.21287  11.22498  2      791
siesta:     21.14226   3.39206  12.06213  3      792
siesta:     17.47808   2.29413  13.28667  3      793
siesta:     19.61725  45.62935  10.79412  2      794
siesta:     20.54700  44.96416  12.52322  1      795
siesta:     17.78800  44.67692  10.62027  1      796
siesta:     21.31612  44.75818   8.55479  2      797
siesta:     21.99453   0.61605   7.24143  3      798
siesta:     23.53277  43.86245   9.46942  3      799
siesta:     20.32590  42.82310   6.58381  2      800
siesta:     18.80278  43.75285   5.52178  1      801
siesta:     21.84524  42.40169   5.25155  1      802
siesta:     19.29033  40.24173   7.47009  2      803
siesta:     16.89227  40.66881   8.27700  3      804
siesta:     18.96908  38.78664   5.38005  3      805
siesta:     20.72463  38.67704   9.50911  2      806
siesta:     22.57279  38.18382   8.74188  1      807
siesta:     21.03833  39.93938  11.11726  1      808
siesta:     19.64371  36.20150  10.61082  2      809
siesta:     20.95329  35.72151  12.77644  3      810
siesta:     17.24187  36.62291  11.42340  3      811
siesta:     19.61536  33.75430   9.04612  2      812
siesta:     18.02610  32.66204   9.71887  1      813
siesta:     19.24498  34.30043   7.08837  1      814
siesta:     21.90004  31.95717   9.02156  2      815
siesta:     23.97119  33.35935   8.49432  3      816
siesta:     22.20996  31.03876  11.40261  3      817
siesta:     21.81123  29.68950   7.17529  2      818
siesta:     20.23709  28.48952   7.72709  1      819
siesta:     21.43139  30.45673   5.29879  1      820
siesta:     24.14126  27.91694   6.95042  2      821
siesta:     25.88359  28.61424   8.69463  3      822
siesta:     23.40616  25.57745   7.73465  3      823
siesta:     25.56611  27.60135   4.42007  2      824
siesta:     25.87981  25.56989   4.21787  1      825
siesta:     24.32078  28.17583   2.87994  1      826
siesta:     28.12481  28.86180   3.90040  2      827
siesta:     29.83879  28.00953   5.64083  3      828
siesta:     28.97140  27.91127   1.69697  3      829
siesta:     28.39315  31.77576   3.80591  2      830
siesta:     27.13837  32.54488   5.21754  1      831
siesta:     30.29610  32.21228   4.41629  1      832
siesta:     27.94150  33.18738   1.30958  2      833
siesta:     30.09390  32.97951  44.62401  3      834
siesta:     26.21051  31.88536  44.61645  3      835
siesta:     27.15349  35.98607   1.31903  2      836
siesta:     28.36291  36.93660   2.69853  1      837
siesta:     27.61080  36.72306  44.13646  1      838
siesta:     24.39637  36.68716   1.98610  2      839
siesta:     23.39671  34.83523   3.42607  3      840
siesta:     24.43795  38.73184   3.55458  3      841
siesta:     22.50476  37.18794  44.52197  2      842
siesta:     22.69751  35.63458  43.19916  1      843
siesta:     20.64338  37.04432   0.72188  1      844
siesta:     22.59924  39.67860  42.96483  2      845
siesta:     22.98286  41.63257  44.57866  3      846
siesta:     24.74786  39.58978  41.57588  3      847
siesta:     20.41850  40.44582  41.19038  2      848
siesta:     20.46007  42.51319  40.96172  1      849
siesta:     20.83235  39.62946  39.35167  1      850
siesta:     17.67839  39.74285  41.90469  2      851
siesta:     17.37982  37.19927  41.58533  3      852
siesta:     17.47997  40.06410  44.44071  3      853
siesta:     15.38049  41.03353  40.68960  2      854
siesta:     13.74209  40.02630  41.40581  1      855
siesta:     15.29356  42.94215  41.41336  1      856
siesta:     15.02900  41.23195  37.81721  2      857
siesta:     16.73731  42.92893  36.91204  3      858
siesta:     15.70363  39.01719  36.70228  3      859
siesta:     12.41551  41.85367  36.70605  2      860
siesta:     12.73109  42.55476  34.82389  1      861
siesta:     11.40828  40.08300  36.53220  1      862
siesta:     10.61082  43.74718  38.01942  2      863
siesta:      8.31669  43.53175  36.88936  3      864
siesta:     10.21397  42.91759  40.42882  3      865
siesta:     11.18151   0.36094  38.14603  2      866
siesta:      9.47131   1.29635  38.78664  1      867
siesta:     12.61771   0.65762  39.58033  1      868
siesta:     12.06591   1.81792  35.76875  2      869
siesta:     14.63971   1.67430  35.68182  3      870
siesta:     11.36104   0.53479  33.66926  3      871
siesta:     11.41395   4.63739  35.40592  2      872
siesta:     11.87126   5.59359  37.18605  1      873
siesta:     12.68763   5.37060  33.97351  1      874
siesta:      8.70597   5.43108  34.67460  2      875
siesta:      7.17907   5.05880  36.68905  3      876
siesta:      8.75133   8.00110  34.49696  3      877
siesta:      7.48521   4.41251  32.23118  2      878
siesta:      6.52523   6.01311  31.32411  1      879
siesta:      9.04423   3.88150  31.00286  1      880
siesta:      5.61627   2.14862  32.24252  2      881
siesta:      6.88805   0.17197  31.23341  3      882
siesta:      5.12116   1.38895  34.66515  3      883
siesta:      3.09915   2.25822  30.79877  2      884
siesta:      3.55269   2.88183  28.89959  1      885
siesta:      2.39050   0.33070  30.64381  1      886
siesta:      0.89573   3.92307  31.65481  2      887
siesta:     41.89713   2.42830  33.00408  3      888
siesta:      1.75367   5.65973  33.34990  3      889
siesta:     41.85367   5.33848  29.67438  2      890
siesta:     41.52297   4.08181  28.07567  1      891
siesta:     40.03008   5.62572  30.58145  1      892
siesta:      0.15118   7.91229  28.61235  2      893
siesta:      2.72499   7.88772  28.49519  3      894
siesta:     41.93115   8.05969  26.16705  3      895
siesta:     42.03697  10.41428  29.94272  2      896
siesta:     42.14847  10.09303  31.97796  1      897
siesta:      0.87116  11.83914  29.49486  1      898
siesta:     39.46317  11.71631  29.42872  2      899
siesta:     39.45750  13.92351  30.74397  3      900
siesta:     39.36112  12.44763  26.97207  3      901
siesta:     36.97251  10.27633  29.98430  2      902
siesta:     37.11424   8.43385  29.08101  1      903
siesta:     36.91959  10.00610  31.99875  1      904
siesta:     34.39870  11.42529  29.30966  2      905
siesta:     32.63369   9.81902  30.27531  3      906
siesta:     34.12091  13.55690  30.69483  3      907
siesta:     33.55588  12.05268  26.60735  2      908
siesta:     31.53765  12.43818  26.72830  1      909
siesta:     34.43460  13.82146  26.07256  1      910
siesta:     33.88658  10.19886  24.39259  2      911
siesta:     34.81444   7.97465  25.31100  3      912
siesta:     31.55088   9.59414  23.54033  3      913
siesta:     35.48907  10.91695  22.10036  2      914
siesta:     34.35146  12.18496  20.92495  1      915
siesta:     37.07266  12.01677  22.80333  1      916
siesta:     36.58700   8.88550  20.32590  2      917
siesta:     37.88524  10.15539  18.49665  3      918
siesta:     38.41437   7.60426  21.60336  3      919
siesta:     34.85979   7.01845  18.91995  2      920
siesta:     32.97195   7.87449  18.81790  1      921
siesta:     35.55143   6.83136  16.99053  1      922
siesta:     34.47807   4.28590  19.91016  2      923
siesta:     32.96440   4.39361  22.01910  3      924
siesta:     33.06077   3.13695  18.09413  3      925
siesta:     36.73251   2.53601  20.48464  2      926
siesta:     38.21595   2.94797  19.09758  1      927
siesta:     37.42415   3.09915  22.35358  1      928
siesta:     36.39425  45.88635  20.57346  2      929
siesta:     38.55232  44.90369  21.56745  3      930
siesta:     34.64436  45.36289  22.38004  3      931
siesta:     35.69316  44.38402  18.16217  2      932
siesta:     33.72974  43.76985  18.38704  1      933
siesta:     35.77064  45.68793  16.58046  1      934
siesta:     37.22384  41.99918  17.39872  2      935
siesta:     36.36968  41.34155  15.07246  3      936
siesta:     39.66537  42.74940  16.98487  3      937
siesta:     37.27675  39.60868  19.05412  2      938
siesta:     38.92270  38.51263  18.49665  1      939
siesta:     37.61690  40.20961  21.02321  1      940
siesta:     35.01097  37.78698  19.12782  2      941
siesta:     32.83967  39.14758  19.46041  3      942
siesta:     34.77853  36.74574  16.79400  3      943
siesta:     34.95806  35.64592  21.10825  2      944
siesta:     35.48340  36.49252  22.91672  1      945
siesta:     33.02298  35.02231  21.29155  1      946
siesta:     36.59645  33.24219  20.76243  2      947
siesta:     38.88302  33.96595  19.90260  3      948
siesta:     37.06321  32.28787  23.10191  3      949
siesta:     35.64214  31.05199  19.05979  2      950
siesta:     33.63147  30.81767  19.40750  1      951
siesta:     35.87080  31.72285  17.10770  1      952
siesta:     36.80621  28.35724  19.18451  2      953
siesta:     36.68149  27.51820  21.61848  3      954
siesta:     35.14325  26.80011  17.96941  3      955
siesta:     39.40647  27.69395  18.04122  2      956
siesta:     39.47073  25.65115  17.89382  1      957
siesta:     39.43671  28.45929  16.12504  1      958
siesta:     41.87635  28.50086  19.39049  2      959
siesta:     41.34155  29.69895  21.57879  3      960
siesta:      0.47243  26.35791  20.17283  3      961
siesta:      1.30202  30.10902  18.06579  2      962
siesta:      0.36094  31.86835  17.44218  1      963
siesta:      2.72310  30.61169  19.48875  1      964
siesta:      2.76845  29.09235  15.75087  2      965
siesta:      1.09415  28.06433  14.09169  3      966
siesta:      3.73032  31.15215  14.57546  3      967
siesta:      4.99077  27.26309  16.16094  2      968
siesta:      6.65184  28.10969  15.28411  1      969
siesta:      5.32147  27.24230  18.16783  1      970
siesta:      4.90195  24.47385  15.31057  2      971
siesta:      7.12616  23.46474  16.07591  3      972
siesta:      3.13128  23.31734  16.79211  3      973
siesta:      4.37094  23.72741  12.53267  2      974
siesta:      2.48121  22.92428  12.48732  1      975
siesta:      4.33314  25.49997  11.45930  1      976
siesta:      6.11516  21.90760  11.02656  2      977
siesta:      5.64650  22.42728   8.55668  3      978
siesta:      8.57558  22.65971  11.34025  3      979
siesta:      5.89595  18.98609  11.28167  2      980
siesta:      3.91740  18.51554  10.89994  1      981
siesta:      7.04301  18.13193   9.78501  1      982
siesta:      6.60082  17.59714  13.74776  2      983
siesta:      5.12116  18.43807  15.64694  3      984
siesta:      5.84115  15.16884  13.39816  3      985
siesta:      9.37116  17.50454  14.64727  2      986
siesta:     10.47854  16.80345  13.09014  1      987
siesta:      9.94752  19.46041  15.01577  1      988
siesta:     10.07602  15.97197  17.03400  2      989
siesta:     12.45141  16.70330  17.72753  3      990
siesta:      8.58503  16.75999  18.99742  3      991
siesta:      9.99477  13.04289  17.03400  2      992
siesta:      9.16895  12.47787  18.81979  1      993
siesta:      8.69463  12.42117  15.58269  1      994
siesta:     12.43062  11.45174  16.65983  2      995
siesta:     13.44730  12.06780  14.38082  3      996
siesta:     14.22019  12.23787  18.40972  3      997
siesta:     12.25110   8.53590  16.84125  2      998
siesta:     11.78056   8.09181  18.77066  1      999
siesta:     10.65617   8.00110  15.65828  1     1000
siesta:     14.48287   6.82002  16.06835  2     1001
siesta:     14.07469   4.52968  17.11148  3     1002
siesta:     14.29956   6.42129  13.55123  3     1003
siesta:     17.24565   7.53623  16.63527  2     1004
siesta:     18.48342   6.21909  15.62426  1     1005
siesta:     17.53856   9.39761  15.78678  1     1006
siesta:     18.22453   7.66473  19.36781  2     1007
siesta:     16.17228   7.79890  20.92117  3     1008
siesta:     19.36403   5.42163  19.96874  3     1009
siesta:     20.09158   9.78312  20.10480  2     1010
siesta:     19.10325  11.60292  19.86103  1     1011
siesta:     20.49220   9.57336  22.10791  1     1012
siesta:     22.66160  10.05335  18.73664  2     1013
siesta:     23.17939   7.86882  17.47997  3     1014
siesta:     22.33279  11.75599  16.83936  3     1015
siesta:     25.08046  10.83569  20.19740  2     1016
siesta:     25.23163   9.64328  21.86414  1     1017
siesta:     26.69806  10.38594  18.98231  1     1018
siesta:     25.38281  13.59658  21.06101  2     1019
siesta:     23.00365  14.50176  21.48430  3     1020
siesta:     26.41082  13.55123  23.41939  3     1021
siesta:     26.75097  15.57702  19.41694  2     1022
siesta:     26.17839  15.33891  17.46864  1     1023
siesta:     26.03099  17.42706  20.03677  1     1024
siesta:     29.68005  15.67528  19.36592  2     1025
siesta:     30.60035  15.17640  21.70918  3     1026
siesta:     30.52476  13.64383  17.97886  3     1027
siesta:     31.02176  18.05634  18.38893  2     1028
siesta:     33.04187  17.63304  18.29634  1     1029
siesta:     30.33390  18.33413  16.44818  1     1030
siesta:     30.82711  20.62259  19.78544  2     1031
siesta:     32.98707  21.92272  19.22041  3     1032
siesta:     28.88637  21.94162  18.69507  3     1033
siesta:     30.54366  20.79455  22.70885  2     1034
siesta:     29.20195  19.35836  23.30789  1     1035
siesta:     32.36157  20.28433  23.57056  1     1036
siesta:     29.62714  23.28521  23.92016  2     1037
siesta:     27.07412  23.47041  23.55356  3     1038
siesta:     29.87658  22.97152  26.46562  3     1039
siesta:     30.86680  25.87414  23.34758  2     1040
siesta:     32.47685  26.01398  24.62503  1     1041
siesta:     31.56411  25.79477  21.41816  1     1042
siesta:     29.32478  28.34023  23.66694  2     1043
siesta:     30.92160  30.29421  23.22852  3     1044
siesta:     27.66371  28.48196  21.71107  3     1045
siesta:     27.82623  28.89581  26.11225  2     1046
siesta:     26.58657  30.49830  25.68139  1     1047
siesta:     26.62625  27.25175  26.51098  1     1048
siesta:     29.20573  29.54588  28.58779  2     1049
siesta:     27.42372  29.52509  30.45295  3     1050
siesta:     30.74019  27.58056  29.26242  3     1051
siesta:     30.65326  32.06678  28.87692  2     1052
siesta:     30.18083  33.18738  27.22341  1     1053
siesta:     29.88414  33.04187  30.50208  1     1054
siesta:     33.56155  32.11969  29.14715  2     1055
siesta:     34.54610  30.26209  27.67316  3     1056
siesta:     34.34012  34.27020  27.91882  3     1057
siesta:     34.98073  31.97229  31.69072  2     1058
siesta:     35.27364  29.98052  32.11402  1     1059
siesta:     36.84212  32.82267  31.37891  1     1060
siesta:     33.89036  33.18171  34.10012  2     1061
siesta:     32.26709  31.47907  35.14136  3     1062
siesta:     35.81221  33.29699  35.80277  3     1063
siesta:     32.71873  35.87269  34.07178  2     1064
siesta:     34.15114  37.14447  34.86168  1     1065
siesta:     32.42771  36.46039  32.10646  1     1066
siesta:     30.26209  36.38102  35.57222  2     1067
siesta:     28.47818  34.75019  34.71806  3     1068
siesta:     30.63436  35.74418  38.04587  3     1069
siesta:     29.04699  39.03231  35.56655  2     1070
siesta:     27.57489  39.03231  37.00463  1     1071
[...]
siesta:   1082    1.498167   -0.318618   -0.459953
siesta:   1083   -0.704405   -0.207400   -0.763686
siesta:   1084   -0.876131   -0.233768    1.104171
siesta:   1085    0.501771    0.591361   -0.267465
siesta:   1086    0.783013   -0.609214    0.124806
siesta:   1087   -1.084731    0.541130    0.184237
siesta:   1088   -0.503413    0.070398   -0.781295
siesta:   1089    0.616785   -1.005915    1.030230
siesta:   1090    0.051716    0.113734   -0.064448
siesta:   1091   -0.929836    0.065156    0.750028
siesta:   1092    0.549715   -0.023712    0.553781
siesta:   1093   -0.185527    0.259109   -0.619925
siesta:   1094    0.220603   -0.868437   -0.276351
siesta:   1095   -0.341773    0.907135   -0.142982
siesta:   1096   -0.578155   -0.036722   -0.275358
siesta:   1097    0.161372   -0.111932    0.002055
siesta:   1098   -0.603040   -0.355425   -0.260554
siesta:   1099    0.576149   -0.808080   -0.029695
siesta:   1100    0.314155   -0.010183    0.354170
siesta:   1101    0.335944    0.124636    0.053617
siesta:   1102   -0.634774    0.939538    0.228648
siesta:   1103   -0.052817   -0.077286    0.080443
siesta:   1104   -0.010339    0.109340   -0.113661
siesta:   1105    0.356058    0.183367    0.099337
siesta:   1106   -0.407370    0.661939   -1.565581
siesta:   1107   -0.092853   -0.395592   -0.608461
siesta:   1108   -0.117007   -1.068756    0.729845
siesta:   1109    0.840174    0.872425   -0.343421
siesta:   1110   -0.864071   -0.289073    0.795167
siesta:   1111    0.380646    0.911505   -0.256534
siesta:   1112    0.397623    0.779537    1.015750
siesta:   1113   -0.753026   -0.878325   -0.352367
siesta:   1114   -0.059824   -0.223101    0.218102
siesta:   1115    0.642481   -0.978394    0.223386
siesta:   1116    0.564291    0.168882   -0.279405
siesta:   1117   -0.948777    0.120709   -0.512806
siesta:   1118   -0.715842   -0.341766    0.040931
siesta:   1119    0.575417    0.305653    0.699877
siesta:   1120    0.242142    0.198576   -0.937732
siesta:   1121   -0.222014    0.739539   -0.002366
siesta:   1122   -0.190916   -0.705823    0.861736
siesta:   1123    0.439042    0.440462   -0.379679
siesta:   1124    0.031598   -0.604589   -0.870771
siesta:   1125   -0.172082   -0.936057    0.025621
siesta:   1126   -0.764781    0.145662    0.834563
siesta:   1127    0.602640    0.535927    0.424928
siesta:   1128   -0.375756    0.959266    0.217533
siesta:   1129    0.821871   -0.392384   -0.806662
siesta:   1130   -0.596501   -0.410309    0.192737
siesta:   1131    0.389602    0.218534   -0.488521
siesta:   1132   -0.070726   -0.665959   -0.114567
siesta:   1133    1.068814    2.043895   -0.394992
siesta:   1134   -1.005599   -2.456115   -1.528599
siesta:   1135   -0.098221    0.706874    2.899311
siesta:   1136    0.610504   -0.092032    1.131714
siesta:   1137    0.269135    0.491484   -0.616055
siesta:   1138   -1.124814   -0.500677   -0.318804
siesta:   1139    0.075231   -1.925190    0.202795
siesta:   1140    1.870816    0.284286    1.418030
siesta:   1141   -1.449639    1.976334   -2.374198
siesta:   1142    0.055912   -1.422058    1.125360
siesta:   1143   -0.047826    0.002229   -0.101115
siesta:   1144   -0.037878    0.409757   -0.049528
siesta:   1145   -0.025420    0.300684    0.403056
siesta:   1146    0.146925   -0.469196   -0.027261
siesta:   1147   -0.170884    0.488804   -0.777022
siesta:   1148   -1.389327    0.630863    1.254993
siesta:   1149    0.232185    0.524672   -0.075886
siesta:   1150    0.585812    0.067461   -1.534221
siesta:   1151   -0.821372   -0.501716   -0.606377
siesta:   1152   -0.117047   -0.366914   -1.207792
siesta:   1153    1.426688   -0.501771    1.589067
siesta:   1154   -0.479149    1.023688   -0.473666
siesta:   1155    0.131740   -0.831277    0.211091
siesta:   1156    0.025507    0.615872    1.132385
siesta:   1157    0.531126   -0.404923   -0.476805
siesta:   1158    0.412712   -0.055118   -1.409936
siesta:   1159   -0.133977   -0.159764    0.883740
siesta:   1160   -0.016632    0.109576   -0.863144
siesta:   1161   -0.742034   -0.168887    0.983628
siesta:   1162    0.566971    1.038246    0.407986
siesta:   1163    0.887128   -0.412534   -1.314782
siesta:   1164   -0.702086   -1.179878    0.022396
siesta:   1165   -0.454480    1.886695    0.777165
siesta:   1166    0.833895    0.524704    0.670497
siesta:   1167    0.516899   -0.151429   -0.361134
siesta:   1168    0.022410   -0.574363   -0.203998
siesta:   1169    0.860825   -0.435557    0.383333
siesta:   1170    0.764516   -0.694399   -0.596025
siesta:   1171   -0.949269    0.001737    0.324653
siesta:   1172    0.500911    0.748335    1.278715
siesta:   1173   -0.583542    0.399372   -1.020951
siesta:   1174   -0.415013    0.245602    0.258277
siesta:   1175    0.686374   -1.541851    0.435307
siesta:   1176   -0.174091    0.004009    1.075971
siesta:   1177    0.500100   -0.164810   -0.543914
siesta:   1178   -0.305749    0.327936   -0.967342
siesta:   1179   -0.235468    0.034613   -0.758730
siesta:   1180   -0.224692    0.259570    0.130711
siesta:   1181    0.168850   -0.955905    0.539945
siesta:   1182   -0.094304    1.145837    0.783017
siesta:   1183    0.381123   -0.981028    0.156749
siesta:   1184   -0.721543   -1.214800   -0.940067
siesta:   1185   -0.411242    0.470221   -0.900397
siesta:   1186    0.662339    0.898848    0.781503
siesta:   1187   -0.440305   -0.638722   -0.469036
siesta:   1188    0.131376    0.522232   -0.591974
siesta:   1189    0.141411   -0.232463    0.589145
siesta:   1190    0.793208    1.825452   -1.010313
siesta:   1191    1.008341   -0.427941    0.048869
siesta:   1192   -1.319941   -1.307093    1.501822
siesta:   1193    0.398513    0.627352   -0.412383
siesta:   1194   -0.672029   -2.459382   -0.180984
siesta:   1195   -0.624694    1.462612    0.094550
siesta:   1196    0.748631    0.484848    1.498170
siesta:   1197   -0.343253    0.335420   -0.357928
siesta:   1198    0.406513    0.412037   -0.151718
siesta:   1199   -0.311223   -2.329270    1.707708
siesta:   1200   -1.983037   -0.669979   -0.287920
siesta:   1201    2.087904    1.929613   -2.612652
siesta:   1202    0.438332    0.073321    1.382924
siesta:   1203    0.300454    0.096967    0.183208
siesta:   1204   -0.467620   -0.177652    0.467892
siesta:   1205   -0.265265   -0.260192    0.276934
siesta:   1206   -1.215987   -0.603948   -1.120891
siesta:   1207    1.637594    1.076688   -0.872063
siesta:   1208   -0.896048    0.521653   -0.360299
siesta:   1209    0.467850   -0.082029    0.789354
siesta:   1210   -0.453964   -0.352211    0.289448
siesta:   1211   -0.167141   -0.187646   -0.678282
siesta:   1212    1.798091    0.978349    0.392692
siesta:   1213   -0.177291   -1.501373    0.562209
siesta:   1214   -0.410565    0.192705   -0.231684
siesta:   1215   -1.060211   -0.028484   -0.419554
siesta:   1216    0.047289    0.406998   -0.287433
siesta:   1217   -1.217388    0.591969    0.518142
siesta:   1218   -0.183819    0.820140   -1.726542
siesta:   1219    1.567650   -0.800196    1.201754
siesta:   1220   -0.281811   -0.435336    0.244833
siesta:   1221    0.808455   -0.312864   -0.423391
siesta:   1222    0.035830   -0.433181    0.398339
siesta:   1223   -0.472687   -0.308088   -0.390623
siesta:   1224   -0.879830    0.397083    0.921099
siesta:   1225   -0.014383    0.854501   -0.409778
siesta:   1226    0.883406   -0.264369   -0.311749
siesta:   1227    0.400048   -0.431432   -0.316044
siesta:   1228    0.138853   -0.529560    0.326650
siesta:   1229    0.656088   -1.184838    0.687383
siesta:   1230   -1.592072    0.182419    1.609658
siesta:   1231    0.548916    1.944560   -2.241238
siesta:   1232    1.051833   -0.382369   -0.279816
siesta:   1233   -0.040298   -0.819056    0.565418
siesta:   1234   -0.765068    0.168539    0.025907
siesta:   1235   -0.508753    0.487565    0.445768
siesta:   1236   -0.344813    0.180949   -0.145898
siesta:   1237    0.901622    0.218232    0.170215
siesta:   1238   -0.817463   -0.393390   -0.242955
siesta:   1239    0.199855    0.142336   -0.432165
siesta:   1240    0.857063   -0.337175    0.179523
siesta:   1241   -0.756673    0.028759    0.348683
siesta:   1242    0.109989   -0.007857    0.846069
siesta:   1243   -0.429994    0.181862   -0.273262
siesta:   1244    0.087331    1.016437    0.101570
siesta:   1245    0.307455   -0.404977   -1.186615
siesta:   1246    0.581963   -0.917839    0.575342
siesta:   1247    0.457626    0.239363    0.170729
siesta:   1248   -0.201597    0.282281   -0.524123
siesta:   1249    0.178349   -0.162349    0.157546
siesta:   1250   -0.572900    0.288211    0.254913
siesta:   1251    0.079072   -0.010519    0.146528
siesta:   1252   -0.644126   -0.264406    0.632610
siesta:   1253    0.541219   -0.101238    0.430862
siesta:   1254   -0.530451   -0.641873    0.537209
siesta:   1255   -0.152560    0.522454    0.521637
siesta:   1256    0.402679   -0.238839    0.505312
siesta:   1257    0.241989    0.470029    0.469113
siesta:   1258    0.003426   -0.064984   -0.252827
siesta:   1259   -0.006993    0.741925   -0.375616
siesta:   1260   -0.082380    0.044586   -0.180961
siesta:   1261    0.076061    0.047207   -0.209370
siesta:   1262   -0.635895   -0.302511   -0.129785
siesta:   1263    0.444881   -0.349079   -0.375809
siesta:   1264   -0.159989   -0.064695    0.004732
siesta:   1265    0.250037   -0.135637   -0.010971
siesta:   1266   -0.104125    0.315349   -0.037316
siesta:   1267    0.315480   -0.895782    0.573265
siesta:   1268    0.760474    0.185420    0.460117
siesta:   1269   -0.687218    0.556862    0.501038
siesta:   1270   -0.429697    0.472614   -0.206463
siesta:   1271    0.540731    0.024330    0.282243
siesta:   1272   -0.216880   -0.206801    0.059570
siesta:   1273   -0.219043    0.487626   -0.128256
siesta:   1274    0.282344   -0.562579   -0.055015
siesta:   1275   -0.036516    0.521684   -0.100937
siesta:   1276   -0.003878   -0.011070   -0.030939
siesta:   1277    0.098682   -0.105689   -0.451055
siesta:   1278    0.208706    0.738950   -0.442678
siesta:   1279   -0.257210    0.143284   -0.157989
siesta:   1280    0.420578    0.235721   -0.424788
siesta:   1281   -0.690988   -0.485886   -0.833857
siesta:   1282    0.472248   -0.431992   -0.687706
siesta: ----------------------------------------
siesta:    Tot    0.126713   -0.101049    0.062239

siesta: Stress tensor (static) (eV/Ang**3):
siesta:     0.000001   -0.000057    0.002284
siesta:    -0.000057    0.007670    0.000690
siesta:     0.002284    0.000690   -0.005005

siesta: Cell volume =      13041.289483 Ang**3

siesta: Pressure (static):
siesta:                Solid            Molecule  Units
siesta:          -0.00000968          0.00001619  Ry/Bohr**3
siesta:          -0.00088860          0.00148644  eV/Ang**3
siesta:          -1.42371159          2.38156534  kBar
(Free)E+ p_basis*V_orbitals  =     -374624.476420
(Free)Eharris+ p_basis*V_orbitals  =     -374624.475535

Optical: Performing optical calculation: 

Optical: Polarization type       = polarized   
Optical: Minimum of energy range =   0.0001 Ry 
Optical: Maximum of energy range =   7.3498 Ry 
Optical: Gaussian broadening     =   0.0037 Ry 
Optical: Scissor operator        =   0.0000 Ry 
Optical: Number of bands         =    13386
Optical: BZ mesh dimensions      =    1   1   1

Optical: electric field direction
Optical:      0.00000     0.00000     1.00000

Optical: Checking f-sum rule  0.880065
Optical: For insulators and closed shell systems
Optical: this number should be close to 1 if an enough
Optical: number of unoccupied bands have been included

* Maximum dynamic memory allocated : Node    0 =   360 MB
* Maximum dynamic memory allocated : Node    1 =   361 MB
* Maximum dynamic memory allocated : Node    2 =   361 MB
* Maximum dynamic memory allocated : Node    3 =   359 MB
* Maximum dynamic memory allocated : Node    4 =   358 MB
* Maximum dynamic memory allocated : Node    5 =   360 MB
* Maximum dynamic memory allocated : Node    6 =   361 MB
* Maximum dynamic memory allocated : Node    7 =   360 MB
* Maximum dynamic memory allocated : Node    8 =   360 MB
* Maximum dynamic memory allocated : Node    9 =   363 MB
* Maximum dynamic memory allocated : Node   10 =   360 MB
* Maximum dynamic memory allocated : Node   11 =   363 MB
* Maximum dynamic memory allocated : Node   12 =   363 MB
* Maximum dynamic memory allocated : Node   13 =   363 MB
* Maximum dynamic memory allocated : Node   14 =   355 MB
* Maximum dynamic memory allocated : Node   15 =   358 MB
* Maximum dynamic memory allocated : Node   16 =   361 MB
* Maximum dynamic memory allocated : Node   17 =   360 MB
* Maximum dynamic memory allocated : Node   18 =   359 MB
* Maximum dynamic memory allocated : Node   19 =   363 MB
* Maximum dynamic memory allocated : Node   20 =   357 MB
* Maximum dynamic memory allocated : Node   21 =   359 MB
* Maximum dynamic memory allocated : Node   22 =   362 MB
* Maximum dynamic memory allocated : Node   23 =   361 MB
* Maximum dynamic memory allocated : Node   24 =   363 MB
* Maximum dynamic memory allocated : Node   25 =   366 MB
* Maximum dynamic memory allocated : Node   26 =   366 MB
* Maximum dynamic memory allocated : Node   27 =   363 MB
* Maximum dynamic memory allocated : Node   28 =   367 MB
* Maximum dynamic memory allocated : Node   29 =   365 MB
* Maximum dynamic memory allocated : Node   30 =   362 MB
* Maximum dynamic memory allocated : Node   31 =   363 MB
* Maximum dynamic memory allocated : Node   32 =   366 MB
* Maximum dynamic memory allocated : Node   33 =   362 MB
* Maximum dynamic memory allocated : Node   34 =   363 MB
* Maximum dynamic memory allocated : Node   35 =   365 MB
* Maximum dynamic memory allocated : Node   36 =   363 MB
* Maximum dynamic memory allocated : Node   37 =   364 MB
* Maximum dynamic memory allocated : Node   38 =   362 MB
* Maximum dynamic memory allocated : Node   39 =   363 MB
* Maximum dynamic memory allocated : Node   40 =   366 MB
* Maximum dynamic memory allocated : Node   41 =   364 MB
* Maximum dynamic memory allocated : Node   42 =   362 MB
* Maximum dynamic memory allocated : Node   43 =   366 MB
* Maximum dynamic memory allocated : Node   44 =   360 MB
* Maximum dynamic memory allocated : Node   45 =   362 MB
* Maximum dynamic memory allocated : Node   46 =   348 MB
* Maximum dynamic memory allocated : Node   47 =   345 MB
* Maximum dynamic memory allocated : Node   48 =   349 MB
* Maximum dynamic memory allocated : Node   49 =   343 MB
* Maximum dynamic memory allocated : Node   50 =   346 MB
* Maximum dynamic memory allocated : Node   51 =   347 MB
* Maximum dynamic memory allocated : Node   52 =   345 MB
* Maximum dynamic memory allocated : Node   53 =   348 MB
* Maximum dynamic memory allocated : Node   54 =   347 MB
* Maximum dynamic memory allocated : Node   55 =   348 MB
* Maximum dynamic memory allocated : Node   56 =   350 MB
* Maximum dynamic memory allocated : Node   57 =   350 MB
* Maximum dynamic memory allocated : Node   58 =   350 MB
* Maximum dynamic memory allocated : Node   59 =   351 MB
* Maximum dynamic memory allocated : Node   60 =   348 MB
* Maximum dynamic memory allocated : Node   61 =   349 MB
* Maximum dynamic memory allocated : Node   62 =   348 MB
* Maximum dynamic memory allocated : Node   63 =   347 MB

* Maximum memory occured during rdiag                         

timer: CPU execution times:
timer:  Routine       Calls   Time/call    Tot.time        %
timer:  siesta            116110048.12616110048.126   100.00
timer:  Setup             1     243.284     243.284     0.00
timer:  bands             1       0.019       0.019     0.00
timer:  writewave         1       0.044       0.044     0.00
timer:  KSV_init          1       0.007       0.007     0.00
timer:  IterMD            2  486646.154  973292.308     6.04
timer:  hsparse           2      33.871      67.742     0.00
timer:  overlap           2      51.151     102.303     0.00
timer:  IterSCF         115    8423.080  968654.170     6.01
timer:  kinefsm           4      27.654     110.614     0.00
timer:  nlefsm            4     165.064     660.258     0.00
timer:  DHSCF           117     906.826  106098.605     0.66
timer:  DHSCF1            1      45.002      45.002     0.00
timer:  DHSCF2            2     957.655    1915.310     0.01
timer:  REORD           706       0.089      63.158     0.00
timer:  POISON          119      24.384    2901.742     0.02
timer:  DHSCF3          117     881.054  103083.329     0.64
timer:  rhoofd          117     358.118   41899.838     0.26
timer:  cellXC          117      71.270    8338.552     0.05
timer:  vmat            117     362.761   42443.025     0.26
timer:  MolMec            4       0.109       0.436     0.00
timer:  diagon          115    6604.485  759515.761     4.71
timer:  r-eigvec        115    6392.115  735093.251     4.56
timer:  r-buildHS       115       0.936     107.634     0.00
timer:  rdiag           116    6393.218  741613.345     4.60
timer:  rdiag1          116     213.586   24776.030     0.15
timer:  rdiag2          116    1565.317  181576.768     1.13
timer:  rdiag3          116    4135.903  479764.776     2.98
timer:  rdiag4          116     458.246   53156.497     0.33
timer:  r-buildD        115     211.878   24366.012     0.15
timer:  DHSCF4            2     516.640    1033.280     0.01
timer:  dfscf             2     457.829     915.658     0.01
timer:  overfsm           2       5.008      10.017     0.00
timer:  optical           115136424.03815136424.038    93.96
timer:  phirphiopt        1    1091.683    1091.683     0.01
timer:  transrate         115128487.40715128487.407    93.91
  

elaps: ELAPSED times:
elaps:  Routine       Calls   Time/call    Tot.time        %
elaps:  siesta            1   37059.937   37059.937   100.00
elaps:  Setup             1       3.912       3.912     0.01
elaps:  bands             1       0.000       0.000     0.00
elaps:  writewave         1       0.001       0.001     0.00
elaps:  KSV_init          1       0.000       0.000     0.00
elaps:  IterMD            2    7640.036   15280.071    41.23
elaps:  hsparse           2       0.529       1.059     0.00
elaps:  overlap           2       0.669       1.339     0.00
elaps:  IterSCF         115     132.214   15204.569    41.03
elaps:  kinefsm           4       0.368       1.472     0.00
elaps:  nlefsm            4       2.651      10.605     0.03
elaps:  DHSCF           117      14.159    1656.601     4.47
elaps:  DHSCF1            1       0.717       0.717     0.00
elaps:  DHSCF2            2      14.979      29.958     0.08
elaps:  REORD           706       0.001       0.974     0.00
elaps:  POISON          119       0.367      43.687     0.12
elaps:  DHSCF3          117      13.761    1609.998     4.34
elaps:  rhoofd          117       5.413     633.368     1.71
elaps:  cellXC          117       1.116     130.583     0.35
elaps:  vmat            117       5.660     662.164     1.79
elaps:  MolMec            4       0.002       0.007     0.00
elaps:  diagon          115     103.734   11929.390    32.19
elaps:  r-eigvec        115     100.453   11552.101    31.17
elaps:  r-buildHS       115       0.011       1.267     0.00
elaps:  rdiag           116     100.471   11654.629    31.45
elaps:  rdiag1          116       3.358     389.505     1.05
elaps:  rdiag2          116      24.666    2861.210     7.72
elaps:  rdiag3          116      64.932    7532.072    20.32
elaps:  rdiag4          116       7.179     832.816     2.25
elaps:  r-buildD        115       3.273     376.430     1.02
elaps:  DHSCF4            2       7.813      15.626     0.04
elaps:  dfscf             2       6.906      13.813     0.04
elaps:  overfsm           2       0.079       0.158     0.00
elaps:  optical           1   21774.688   21774.688    58.76
elaps:  phirphiopt        1      17.362      17.362     0.05
elaps:  transrate         1   21649.702   21649.702    58.42
  
>> End of run:  26-APR-2012  15:39:08
