Siesta Version:                                        siesta-3.1
Architecture  : x86_64-unknown-linux-gnu--Intel
Compiler flags: mpif90 -O3 -xSSSE3 -axSSE4.2,SSE4.1 -ip
PARALLEL version
NetCDF support

* Running on   64 nodes in parallel
>> Start of run:  10-MAY-2012  17:38:00

                           ***********************       
                           *  WELCOME TO SIESTA  *       
                           ***********************       

reinit: Reading from standard input
************************** Dump of input data file ****************************
SystemName      optical
SystemLabel     optical
NumberOfAtoms   32
NumberOfSpecies 1
MD.TypeOfRun    CG
MD.NumCGsteps   0
MD.ConstantVolume  .true.
SolutionMethod  diagon
XC.functional   GGA
XC.authors      PBE
PAO.BasisSize   DZP
DM.NumberPulay  7
DM.MixingWeight 0.1
DirectPhi       .true.
SaveMemory      .true.
MeshCutoff      500 Ry
MaxSCFiterations 200
UseSaveData     .true.
WriteMullikenPop 1
OpticalCalculation      .true.
%block Optical.Mesh
 1 1 1
%endblock Optical.Mesh
Optical.PolarizationType  polarized
%block Optical.Vector
 0.0 0.0 1.0
%endblock Optical.Vector
Optical.Broaden         0.05 eV
Optical.EnergyMinimum   0.001 eV
Optical.EnergyMaximum   100.0 eV
%block ChemicalSpeciesLabel
 1  47   Ag
%endblock ChemicalSpeciesLabel
LatticeConstant 1.0 Ang
%block LatticeParameters
  22.534   24.472   23.649   90.0 90.0 90.0
%endblock LatticeParameters
AtomicCoordinatesFormat Ang
%block AtomicCoordinatesAndAtomicSpecies < struct.coor
%endblock AtomicCoordinatesAndAtomicSpecies
************************** End of input data file *****************************

reinit: -----------------------------------------------------------------------
reinit: System Name: optical
reinit: -----------------------------------------------------------------------
reinit: System Label: optical                                                     
reinit: -----------------------------------------------------------------------

initatom: Reading input for the pseudopotentials and atomic orbitals ----------
 Species number:            1  Label: Ag Atomic number:          47
Ground state valence configuration:   5s01  4d10
Reading pseudopotential information in formatted form from Ag.psf

Valence configuration for pseudopotential generation:
5s( 1.00) rc: 2.52
5p( 0.00) rc: 2.72
4d(10.00) rc: 2.52
4f( 0.00) rc: 2.52
For Ag, standard SIESTA heuristics set lmxkb to 3
 (one more than the basis l, including polarization orbitals).
Use PS.lmax or PS.KBprojectors blocks to override.

<basis_specs>
===============================================================================
Ag                   Z=  47    Mass=  107.87        Charge= 0.17977+309
Lmxo=2 Lmxkb= 3    BasisType=split      Semic=F
L=0  Nsemic=0  Cnfigmx=5
          n=1  nzeta=2  polorb=1
            splnorm:   0.15000    
               vcte:    0.0000    
               rinn:    0.0000    
                rcs:    0.0000      0.0000    
            lambdas:    1.0000      1.0000    
L=1  Nsemic=0  Cnfigmx=5
L=2  Nsemic=0  Cnfigmx=4
          n=1  nzeta=2  polorb=0
            splnorm:   0.15000    
               vcte:    0.0000    
               rinn:    0.0000    
                rcs:    0.0000      0.0000    
            lambdas:    1.0000      1.0000    
-------------------------------------------------------------------------------
L=0  Nkbl=1  erefs: 0.17977+309
L=1  Nkbl=1  erefs: 0.17977+309
L=2  Nkbl=1  erefs: 0.17977+309
L=3  Nkbl=1  erefs: 0.17977+309
===============================================================================
</basis_specs>

atom: Called for Ag                    (Z =  47)

read_vps: Pseudopotential generation method:
read_vps: ATM 3.2.2 Troullier-Martins                       
Total valence charge:   11.00000

xc_check: Exchange-correlation functional:
xc_check: GGA Perdew, Burke & Ernzerhof 1996
V l=0 = -2*Zval/r beyond r=  2.4592
V l=1 = -2*Zval/r beyond r=  2.6507
V l=2 = -2*Zval/r beyond r=  2.4592
V l=3 = -2*Zval/r beyond r=  2.4592
All V_l potentials equal beyond r=  2.6507
This should be close to max(r_c) in ps generation
All pots = -2*Zval/r beyond r=  2.6507

VLOCAL1: 99.0% of the norm of Vloc inside      6.178 Ry
VLOCAL1: 99.9% of the norm of Vloc inside     14.079 Ry
atom: Maximum radius for 4*pi*r*r*local-pseudopot. charge    3.19739
atom: Maximum radius for r*vlocal+2*Zval:    2.82168
GHOST: No ghost state for L =  0
GHOST: No ghost state for L =  1
GHOST: No ghost state for L =  2
GHOST: No ghost state for L =  3

KBgen: Kleinman-Bylander projectors: 
   l= 0   rc=  2.966357   el= -0.323666   Ekb=  3.565490   kbcos=  0.247453
   l= 1   rc=  3.003670   el= -0.054265   Ekb=  1.619308   kbcos=  0.223076
   l= 2   rc=  2.786631   el= -0.547066   Ekb= -7.840816   kbcos= -0.714112
   l= 3   rc=  3.079709   el=  0.002953   Ekb= -2.732950   kbcos= -0.012571

KBgen: Total number of  Kleinman-Bylander projectors:   16
atom: -------------------------------------------------------------------------

atom: SANKEY-TYPE ORBITALS:
atom: Selected multiple-zeta basis: split     

SPLIT: Orbitals with angular momentum L= 0

SPLIT: Basis orbitals for state 5s

SPLIT: PAO cut-off radius determined from an
SPLIT: energy shift=  0.020000 Ry

   izeta = 1
                 lambda =    1.000000
                     rc =    6.684855
                 energy =   -0.305483
                kinetic =    0.327133
    potential(screened) =   -0.632616
       potential(ionic) =   -8.088030

   izeta = 2
                 rmatch =    6.279837
              splitnorm =    0.150000
                 energy =   -0.253539
                kinetic =    0.499634
    potential(screened) =   -0.753173
       potential(ionic) =   -8.691029

SPLIT: Orbitals with angular momentum L= 2

SPLIT: Basis orbitals for state 4d

SPLIT: PAO cut-off radius determined from an
SPLIT: energy shift=  0.020000 Ry

   izeta = 1
                 lambda =    1.000000
                     rc =    3.954440
                 energy =   -0.527442
                kinetic =    6.210364
    potential(screened) =   -6.737807
       potential(ionic) =  -18.733043

   izeta = 2
                 rmatch =    2.490121
              splitnorm =    0.150000
                 energy =   -0.148928
                kinetic =    8.576261
    potential(screened) =   -8.725189
       potential(ionic) =  -21.658221

POLgen: Perturbative polarization orbital with L=  1

POLgen: Polarization orbital for state 5s

   izeta = 1
                     rc =    6.684855
                 energy =   -0.001728
                kinetic =    0.597115
    potential(screened) =   -0.598843
       potential(ionic) =   -7.554613
atom: Total number of Sankey-type orbitals: 15

atm_pop: Valence configuration (for local Pseudopot. screening):
 5s( 1.00)                                                            
 5p( 0.00)                                                            
 4d(10.00)                                                            
Vna: chval, zval:   11.00000  11.00000

Vna:  Cut-off radius for the neutral-atom potential:   6.684855

atom: _________________________________________________________________________

prinput: Basis input ----------------------------------------------------------

PAO.BasisType split     

%block ChemicalSpeciesLabel
    1   47 Ag                      # Species index, atomic number, species label
%endblock ChemicalSpeciesLabel

%block PAO.Basis                 # Define Basis set
Ag                    2                    # Species label, number of l-shells
 n=5   0   2 P   1                   # n, l, Nzeta, Polarization, NzetaPol
   6.685      6.280   
   1.000      1.000   
 n=4   2   2                         # n, l, Nzeta 
   3.954      2.490   
   1.000      1.000   
%endblock PAO.Basis

prinput: ----------------------------------------------------------------------

Dumping basis to NetCDF file Ag.ion.nc
coor:   Atomic-coordinates input format  =     Cartesian coordinates
coor:                                          (in Angstroms)

siesta: WARNING: XV file not found

siesta: Atomic coordinates (Bohr) and species
siesta:     18.97286  27.32545   3.15584  1        1
siesta:     24.43228  27.32545   3.15584  1        2
siesta:     13.51344  27.32545   3.15584  1        3
siesta:     21.70351  32.05355   3.15584  1        4
siesta:     21.70351  22.59735   3.15584  1        5
siesta:     16.24220  32.05355   3.15584  1        6
siesta:     16.24220  22.59735   3.15584  1        7
siesta:     18.97286  30.47752   7.61371  1        8
siesta:     18.97286  21.02132   7.61371  1        9
siesta:     21.70351  25.74942   7.61371  1       10
siesta:     16.24220  25.74942   7.61371  1       11
siesta:     24.43228  30.47752   7.61371  1       12
siesta:     13.51344  30.47752   7.61371  1       13
siesta:     21.70351  23.23230  24.35480  1       14
siesta:     16.24220  23.23230  24.35480  1       15
siesta:     18.97286  18.50421  24.35480  1       16
siesta:     18.97286  27.96040  24.35480  1       17
siesta:     13.51344  18.50421  24.35480  1       18
siesta:     24.43228  18.50421  24.35480  1       19
siesta:     24.43228  21.65627  28.81267  1       20
siesta:     13.51344  21.65627  28.81267  1       21
siesta:     21.70351  26.38437  28.81267  1       22
siesta:     21.70351  16.92817  28.81267  1       23
siesta:     16.24220  26.38437  28.81267  1       24
siesta:     16.24220  16.92817  28.81267  1       25
siesta:     18.97286  21.65627  28.81267  1       26
siesta:     18.97286  24.80833  33.27053  1       27
siesta:     18.97286  15.35214  33.27053  1       28
siesta:     21.70351  20.08024  33.27053  1       29
siesta:     16.24220  20.08024  33.27053  1       30
siesta:     24.43228  24.80833  33.27053  1       31
siesta:     13.51344  24.80833  33.27053  1       32

siesta: System type = molecule  

initatomlists: Number of atoms, orbitals, and projectors:     32   480   512

siesta: ******************** Simulation parameters ****************************
siesta:
siesta: The following are some of the parameters of the simulation.
siesta: A complete list of the parameters used, including default values,
siesta: can be found in file out.fdf
siesta:
redata: Non-Collinear-spin run           =     F
redata: SpinPolarized (Up/Down) run      =     F
redata: Number of spin components        =     1
redata: Long output                      =     F
redata: Number of Atomic Species         =        1
redata: Charge density info will appear in .RHO file
redata: Write Mulliken Pop.              =     Atomic and Orbital charges
redata: Mesh Cutoff                      =   500.0000  Ry
redata: Net charge of the system         =     0.0000 |e|
redata: Max. number of SCF Iter          =      200
redata: Performing Pulay mixing using    =     7 iterations
redata: Mix DM in first SCF step ?       =     F
redata: Write Pulay info on disk?        =     F
redata: Discard 1st Pulay DM after  kick =     F
redata: New DM Mixing Weight             =     0.1000
redata: New DM Occupancy tolerance       = 0.000000000001
redata: No kicks to SCF
redata: DM Mixing Weight for Kicks       =     0.5000
redata: DM Tolerance for SCF             =     0.000100
redata: Require Energy convergence for SCF =     F
redata: DM Energy tolerance for SCF      =     0.000100 eV
redata: Require Harris convergence for SCF =     F
redata: DM Harris energy tolerance for SCF =     0.000100 eV
redata: Using Saved Data (generic)   =     T
redata: Use continuation files for DM    =     T
redata: Neglect nonoverlap interactions  =     F
redata: Method of Calculation            =     Diagonalization
redata: Divide and Conquer               =     T
redata: Electronic Temperature           =     0.0019  Ry
redata: Fix the spin of the system       =     F
redata: Dynamics option                  =     CG coord. optimization
redata: Variable cell                    =     F
redata: Use continuation files for CG    =     T
redata: Max atomic displ per move        =     0.2000  Bohr
redata: Maximum number of CG moves       =        0
redata: Force tolerance                  =     0.0016  Ry/Bohr
redata: ***********************************************************************
Total number of electrons:   352.000000
Total ionic charge:   352.000000

* ProcessorY, Blocksize:    8   8

 Kpoints in:            1 . Kpoints trimmed:            1

siesta: k-grid: Number of k-points =     1
siesta: k-grid: Cutoff (effective) =    11.267 Ang
siesta: k-grid: Supercell and displacements
siesta: k-grid:    1   0   0      0.000
siesta: k-grid:    0   1   0      0.000
siesta: k-grid:    0   0   1      0.000

* Maximum dynamic memory allocated =     1 MB

siesta:                 ==============================
                            Begin CG move =      0
                        ==============================

outcell: Unit cell vectors (Ang):
       22.534000    0.000000    0.000000
        0.000000   24.472000    0.000000
        0.000000    0.000000   23.649000

outcell: Cell vector modules (Ang)   :   22.534000   24.472000   23.649000
outcell: Cell angles (23,13,12) (deg):     90.0000     90.0000     90.0000
outcell: Cell volume (Ang**3)        :  13041.2895
New_DM. Step:     1
Initializing Density Matrix...

InitMesh: MESH =   320 x   360 x   320 =    36864000
InitMesh: Mesh cutoff (required, used) =   500.000   506.030 Ry

* Maximum dynamic memory allocated =    80 MB

stepf: Fermi-Dirac step function

siesta: Program's energy decomposition (eV):
siesta: Ebs     =     -1317.495376
siesta: Eions   =     35531.607510
siesta: Ena     =       314.489247
siesta: Ekin    =     27181.985408
siesta: Enl     =    -18115.277726
siesta: DEna    =        -0.000261
siesta: DUscf   =         0.000000
siesta: DUext   =         0.000000
siesta: Exc     =     -5190.370490
siesta: eta*DQ  =         0.000000
siesta: Emadel  =         0.000000
siesta: Emeta   =         0.000000
siesta: Emolmec =         0.000000
siesta: Ekinion =         0.000000
siesta: Eharris =    -31462.622088
siesta: Etot    =    -31340.781333
siesta: FreeEng =    -31340.781333

siesta: iscf   Eharris(eV)      E_KS(eV)   FreeEng(eV)   dDmax  Ef(eV)
siesta:    1   -31462.6221   -31340.7813   -31340.7813  0.6925 -1.5518
timer: Routine,Calls,Time,% = IterSCF        1     868.619  90.50
elaps: Routine,Calls,Wall,% = IterSCF        1      13.574  90.74
siesta:    2   -31496.6232   -31377.9008   -31377.9489  0.8635 -4.5338
siesta:    3   -31430.8852   -31384.3298   -31384.4200  0.4847 -3.4307
siesta:    4   -31429.4053   -31387.0668   -31387.1233  0.4674 -3.2385
siesta:    5   -31428.7345   -31390.4023   -31390.4227  0.3422 -3.0956
siesta:    6   -31429.3916   -31417.9876   -31418.0136  0.1056 -2.6158
siesta:    7   -31428.2093   -31423.1472   -31423.1518  0.0397 -2.8125
siesta:    8   -31428.1512   -31426.0081   -31426.0770  0.0552 -2.8109
siesta:    9   -31428.1433   -31426.3965   -31426.4656  0.0399 -2.7927
siesta:   10   -31428.1202   -31426.9349   -31426.9973  0.0152 -2.8072
siesta:   11   -31428.1154   -31427.2632   -31427.3356  0.0081 -2.8006
siesta:   12   -31428.1163   -31427.6365   -31427.7116  0.0156 -2.7979
siesta:   13   -31427.7862   -31427.8648   -31427.9401  1.0460 -2.8021
siesta:   14   -31427.7862   -31427.8640   -31427.9375  1.0460 -2.8021
siesta:   15   -31427.7862   -31427.8852   -31427.9587  1.0466 -2.8021
siesta:   16   -31428.1154   -31427.6705   -31427.7440  0.0033 -2.7992
siesta:   17   -31428.1153   -31427.8938   -31427.9686  0.0032 -2.7956
siesta:   18   -31428.1154   -31427.9790   -31428.0539  0.0026 -2.7948
siesta:   19   -31428.1153   -31428.0546   -31428.1294  0.0026 -2.7954
siesta:   20   -31428.1154   -31428.0898   -31428.1645  0.0031 -2.7956
siesta:   21   -31428.1155   -31428.1126   -31428.1872  0.0033 -2.7959
siesta:   22   -31428.1154   -31428.1107   -31428.1853  0.0033 -2.7961
siesta:   23   -31428.1154   -31428.0896   -31428.1642  0.0026 -2.7963
siesta:   24   -31428.1154   -31428.1135   -31428.1881  0.0002 -2.7962
siesta:   25   -31428.1154   -31428.1141   -31428.1887  0.0002 -2.7961
siesta:   26   -31428.1154   -31428.1095   -31428.1841  0.0001 -2.7961

siesta: E_KS(eV) =           -31428.1133

siesta: E_KS - E_eggbox =    -31428.1133

siesta: Atomic forces (eV/Ang):
----------------------------------------
   Tot    0.007819   -0.013541   -0.004534
----------------------------------------
   Max    1.316349
   Res    0.626517    sqrt( Sum f_i^2 / 3N )
----------------------------------------
   Max    1.316349    constrained

Stress-tensor-Voigt (kbar):        4.17        4.15        3.90        0.00        0.00        0.00
(Free)E + p*V (eV/cell)   -31461.3706
Target enthalpy (eV/cell)   -31428.1879
 
mulliken: Atomic and Orbital Populations:

Species: Ag                  
Atom  Qatom  Qorb
               5s      5s      4dxy    4dyz    4dz2    4dxz    4dx2-y2 4dxy    
               4dyz    4dz2    4dxz    4dx2-y2 5Ppy    5Ppz    5Ppx    
   1 11.076   0.404   0.413   1.869   1.907   1.896   1.907   1.869   0.033
              0.015   0.025   0.015   0.033   0.248   0.194   0.248
   2 10.986   0.649   0.279   1.942   1.943   1.926   1.973   1.910  -0.003
             -0.006  -0.003  -0.016   0.000   0.182   0.102   0.108
   3 10.986   0.649   0.279   1.942   1.943   1.926   1.973   1.910  -0.003
             -0.006  -0.003  -0.016   0.000   0.182   0.102   0.108
   4 10.985   0.648   0.279   1.918   1.986   1.926   1.929   1.933  -0.001
             -0.020  -0.003  -0.002  -0.002   0.114   0.102   0.176
   5 10.983   0.645   0.280   1.917   1.944   1.926   1.971   1.934   0.000
             -0.007  -0.002  -0.015  -0.002   0.139   0.101   0.151
   6 10.985   0.648   0.279   1.918   1.986   1.926   1.929   1.933  -0.001
             -0.020  -0.003  -0.002  -0.002   0.114   0.102   0.176
   7 10.983   0.645   0.280   1.917   1.944   1.926   1.971   1.934   0.000
             -0.007  -0.002  -0.015  -0.002   0.139   0.101   0.151
   8 10.997   0.453   0.347   1.900   1.926   1.922   1.914   1.886   0.013
              0.010   0.014   0.009   0.022   0.176   0.169   0.237
   9 10.992   0.787   0.234   1.925   1.991   1.939   1.942   1.985  -0.007
             -0.026  -0.016  -0.011  -0.026   0.087   0.080   0.108
  10 10.996   0.452   0.348   1.889   1.917   1.922   1.923   1.896   0.020
              0.009   0.014   0.009   0.015   0.222   0.169   0.192
  11 10.996   0.452   0.348   1.889   1.917   1.922   1.923   1.896   0.020
              0.009   0.014   0.009   0.015   0.222   0.169   0.192
  12 10.994   0.789   0.233   1.970   1.955   1.939   1.979   1.940  -0.021
             -0.015  -0.016  -0.022  -0.012   0.103   0.081   0.092
  13 10.994   0.789   0.233   1.970   1.955   1.939   1.979   1.940  -0.021
             -0.015  -0.016  -0.022  -0.012   0.103   0.081   0.092
  14 11.046   0.538   0.362   1.882   1.914   1.907   1.915   1.893   0.021
              0.011   0.015   0.011   0.017   0.206   0.162   0.191
  15 11.046   0.538   0.362   1.882   1.914   1.907   1.915   1.893   0.021
              0.011   0.015   0.011   0.017   0.206   0.162   0.191
  16 11.046   0.538   0.362   1.898   1.916   1.907   1.913   1.877   0.015
              0.012   0.015   0.011   0.023   0.184   0.162   0.214
  17 10.905   0.640   0.254   1.931   1.991   1.954   1.937   1.987  -0.008
             -0.025  -0.015  -0.010  -0.024   0.084   0.098   0.111
  18 10.904   0.639   0.254   1.973   1.950   1.954   1.977   1.945  -0.020
             -0.014  -0.014  -0.021  -0.012   0.104   0.098   0.091
  19 10.904   0.639   0.254   1.973   1.950   1.954   1.977   1.945  -0.020
             -0.014  -0.014  -0.021  -0.012   0.104   0.098   0.091
  20 11.045   0.537   0.363   1.925   1.877   1.879   1.927   1.902   0.010
              0.023   0.020   0.008   0.014   0.209   0.211   0.140
  21 11.045   0.537   0.363   1.925   1.877   1.879   1.927   1.902   0.010
              0.023   0.020   0.008   0.014   0.209   0.211   0.140
  22 11.045   0.537   0.362   1.908   1.914   1.879   1.889   1.920   0.013
              0.012   0.020   0.020   0.011   0.157   0.211   0.191
  23 11.045   0.537   0.363   1.908   1.914   1.879   1.889   1.920   0.013
              0.012   0.020   0.020   0.011   0.157   0.211   0.191
  24 11.045   0.537   0.362   1.908   1.914   1.879   1.889   1.920   0.013
              0.012   0.020   0.020   0.011   0.157   0.211   0.191
  25 11.045   0.537   0.363   1.908   1.914   1.879   1.889   1.920   0.013
              0.012   0.020   0.020   0.011   0.157   0.211   0.191
  26 11.078   0.173   0.548   1.887   1.892   1.881   1.892   1.887   0.029
              0.028   0.030   0.027   0.029   0.258   0.258   0.259
  27 11.045   0.537   0.362   1.898   1.916   1.907   1.913   1.877   0.015
              0.012   0.015   0.011   0.023   0.184   0.162   0.214
  28 10.904   0.640   0.254   1.931   1.991   1.954   1.937   1.987  -0.008
             -0.025  -0.015  -0.010  -0.024   0.084   0.098   0.111
  29 11.046   0.538   0.362   1.882   1.914   1.907   1.915   1.893   0.021
              0.011   0.015   0.011   0.017   0.206   0.162   0.191
  30 11.046   0.538   0.362   1.882   1.914   1.907   1.915   1.893   0.021
              0.011   0.015   0.011   0.017   0.206   0.162   0.191
  31 10.904   0.639   0.254   1.973   1.950   1.954   1.977   1.945  -0.020
             -0.014  -0.014  -0.021  -0.012   0.104   0.098   0.091
  32 10.904   0.639   0.254   1.973   1.950   1.954   1.977   1.945  -0.020
             -0.014  -0.014  -0.021  -0.012   0.104   0.098   0.091

mulliken: Qtot =      352.000

* Maximum dynamic memory allocated =    80 MB

siesta: Program's energy decomposition (eV):
siesta: Ebs     =     -2135.953480
siesta: Eions   =     35531.607510
siesta: Ena     =       314.489247
siesta: Ekin    =     25878.058623
siesta: Enl     =    -17203.463411
siesta: DEna    =       115.016843
siesta: DUscf   =        21.862130
siesta: DUext   =         0.000000
siesta: Exc     =     -5022.469211
siesta: eta*DQ  =         0.000000
siesta: Emadel  =         0.000000
siesta: Emeta   =         0.000000
siesta: Emolmec =         0.000000
siesta: Ekinion =         0.000000
siesta: Eharris =    -31428.115408
siesta: Etot    =    -31428.113290
siesta: FreeEng =    -31428.187872

siesta: Final energy (eV):
siesta:  Band Struct. =   -2135.953480
siesta:       Kinetic =   25878.058623
siesta:       Hartree =   83403.405130
siesta:    Ext. field =       0.000000
siesta:   Exch.-corr. =   -5022.469211
siesta:  Ion-electron = -188301.316124
siesta:       Ion-ion =   52614.208293
siesta:       Ekinion =       0.000000
siesta:         Total =  -31428.113290

siesta: Atomic forces (eV/Ang):
siesta:      1   -0.006907   -0.000257    0.208201
siesta:      2   -0.989367   -0.147885    0.860061
siesta:      3    0.988379   -0.146921    0.859758
siesta:      4   -0.624550   -0.787021    0.863034
siesta:      5   -0.371183    0.933625    0.861195
siesta:      6    0.636888   -0.788225    0.863957
siesta:      7    0.375984    0.934365    0.859898
siesta:      8   -0.007391   -0.372713   -0.851342
siesta:      9    0.000422    1.025921   -0.940428
siesta:     10   -0.330356    0.188930   -0.850216
siesta:     11    0.338284    0.186708   -0.851377
siesta:     12   -0.887840   -0.511797   -0.943119
siesta:     13    0.886907   -0.513212   -0.943194
siesta:     14   -0.262106   -0.146317    0.419912
siesta:     15    0.269823   -0.141684    0.419477
siesta:     16   -0.004638    0.298419    0.419153
siesta:     17   -0.002331   -1.316349    0.929685
siesta:     18    1.133226    0.655797    0.925664
siesta:     19   -1.135362    0.656378    0.926158
siesta:     20   -0.515220   -0.002313   -0.001265
siesta:     21    0.512436    0.002279    0.000429
siesta:     22   -0.263873   -0.447651    0.001594
siesta:     23   -0.263560    0.445398    0.001285
siesta:     24    0.269974   -0.449108    0.000279
siesta:     25    0.269500    0.445981    0.001690
siesta:     26   -0.006604    0.000294   -0.001019
siesta:     27   -0.004887   -0.299516   -0.421658
siesta:     28   -0.000554    1.309972   -0.927672
siesta:     29   -0.262898    0.143975   -0.419390
siesta:     30    0.269563    0.145366   -0.419279
siesta:     31   -1.137912   -0.658196   -0.928205
siesta:     32    1.133970   -0.657781   -0.927797
siesta: ----------------------------------------
siesta:    Tot    0.007819   -0.013541   -0.004534

siesta: Stress tensor (static) (eV/Ang**3):
siesta:     0.002605    0.000003    0.000002
siesta:     0.000003    0.002591    0.000000
siesta:     0.000002    0.000000    0.002437

siesta: Cell volume =      13041.289483 Ang**3

siesta: Pressure (static):
siesta:                Solid            Molecule  Units
siesta:          -0.00002771         -0.00000005  Ry/Bohr**3
siesta:          -0.00254444         -0.00000455  eV/Ang**3
siesta:          -4.07667865         -0.00729314  kBar
(Free)E+ p_basis*V_orbitals  =      -31405.317661
(Free)Eharris+ p_basis*V_orbitals  =      -31405.323560

siesta: Electric dipole (a.u.)  =    0.000016    0.220662   -1.106760
siesta: Electric dipole (Debye) =    0.000041    0.560868   -2.813104

Optical: Performing optical calculation: 

Optical: Polarization type       = polarized   
Optical: Minimum of energy range =   0.0001 Ry 
Optical: Maximum of energy range =   7.3498 Ry 
Optical: Gaussian broadening     =   0.0037 Ry 
Optical: Scissor operator        =   0.0000 Ry 
Optical: Number of bands         =      480
Optical: BZ mesh dimensions      =    1   1   1

Optical: electric field direction
Optical:      0.00000     0.00000     1.00000

Optical: Checking f-sum rule  0.369931
Optical: For insulators and closed shell systems
Optical: this number should be close to 1 if an enough
Optical: number of unoccupied bands have been included

* Maximum dynamic memory allocated : Node    0 =    68 MB
* Maximum dynamic memory allocated : Node    1 =    68 MB
* Maximum dynamic memory allocated : Node    2 =    68 MB
* Maximum dynamic memory allocated : Node    3 =    68 MB
* Maximum dynamic memory allocated : Node    4 =    68 MB
* Maximum dynamic memory allocated : Node    5 =    68 MB
* Maximum dynamic memory allocated : Node    6 =    68 MB
* Maximum dynamic memory allocated : Node    7 =    68 MB
* Maximum dynamic memory allocated : Node    8 =    68 MB
* Maximum dynamic memory allocated : Node    9 =    68 MB
* Maximum dynamic memory allocated : Node   10 =    68 MB
* Maximum dynamic memory allocated : Node   11 =    68 MB
* Maximum dynamic memory allocated : Node   12 =    68 MB
* Maximum dynamic memory allocated : Node   13 =    69 MB
* Maximum dynamic memory allocated : Node   14 =    68 MB
* Maximum dynamic memory allocated : Node   15 =    68 MB
* Maximum dynamic memory allocated : Node   16 =    69 MB
* Maximum dynamic memory allocated : Node   17 =    69 MB
* Maximum dynamic memory allocated : Node   18 =    68 MB
* Maximum dynamic memory allocated : Node   19 =    69 MB
* Maximum dynamic memory allocated : Node   20 =    73 MB
* Maximum dynamic memory allocated : Node   21 =    73 MB
* Maximum dynamic memory allocated : Node   22 =    70 MB
* Maximum dynamic memory allocated : Node   23 =    68 MB
* Maximum dynamic memory allocated : Node   24 =    73 MB
* Maximum dynamic memory allocated : Node   25 =    72 MB
* Maximum dynamic memory allocated : Node   26 =    69 MB
* Maximum dynamic memory allocated : Node   27 =    71 MB
* Maximum dynamic memory allocated : Node   28 =    79 MB
* Maximum dynamic memory allocated : Node   29 =    80 MB
* Maximum dynamic memory allocated : Node   30 =    73 MB
* Maximum dynamic memory allocated : Node   31 =    69 MB
* Maximum dynamic memory allocated : Node   32 =    76 MB
* Maximum dynamic memory allocated : Node   33 =    75 MB
* Maximum dynamic memory allocated : Node   34 =    69 MB
* Maximum dynamic memory allocated : Node   35 =    69 MB
* Maximum dynamic memory allocated : Node   36 =    74 MB
* Maximum dynamic memory allocated : Node   37 =    76 MB
* Maximum dynamic memory allocated : Node   38 =    71 MB
* Maximum dynamic memory allocated : Node   39 =    69 MB
* Maximum dynamic memory allocated : Node   40 =    74 MB
* Maximum dynamic memory allocated : Node   41 =    74 MB
* Maximum dynamic memory allocated : Node   42 =    69 MB
* Maximum dynamic memory allocated : Node   43 =    68 MB
* Maximum dynamic memory allocated : Node   44 =    69 MB
* Maximum dynamic memory allocated : Node   45 =    69 MB
* Maximum dynamic memory allocated : Node   46 =    68 MB
* Maximum dynamic memory allocated : Node   47 =    69 MB
* Maximum dynamic memory allocated : Node   48 =    69 MB
* Maximum dynamic memory allocated : Node   49 =    68 MB
* Maximum dynamic memory allocated : Node   50 =    68 MB
* Maximum dynamic memory allocated : Node   51 =    68 MB
* Maximum dynamic memory allocated : Node   52 =    68 MB
* Maximum dynamic memory allocated : Node   53 =    68 MB
* Maximum dynamic memory allocated : Node   54 =    68 MB
* Maximum dynamic memory allocated : Node   55 =    68 MB
* Maximum dynamic memory allocated : Node   56 =    68 MB
* Maximum dynamic memory allocated : Node   57 =    68 MB
* Maximum dynamic memory allocated : Node   58 =    68 MB
* Maximum dynamic memory allocated : Node   59 =    68 MB
* Maximum dynamic memory allocated : Node   60 =    66 MB
* Maximum dynamic memory allocated : Node   61 =    66 MB
* Maximum dynamic memory allocated : Node   62 =    66 MB
* Maximum dynamic memory allocated : Node   63 =    66 MB

* Maximum memory occured during redistribXY                   

timer: CPU execution times:
timer:  Routine       Calls   Time/call    Tot.time        %
timer:  siesta            1   12170.998   12170.998   100.00
timer:  Setup             1      61.194      61.194     0.50
timer:  bands             1       0.033       0.033     0.00
timer:  writewave         1       0.052       0.052     0.00
timer:  KSV_init          1       0.008       0.008     0.00
timer:  IterMD            1   11363.630   11363.630    93.37
timer:  hsparse           1       0.055       0.055     0.00
timer:  overlap           1      14.013      14.013     0.12
timer:  IterSCF          26     416.171   10820.443    88.90
timer:  kinefsm           2       6.601      13.202     0.11
timer:  nlefsm            2      25.034      50.068     0.41
timer:  DHSCF            27     375.787   10146.255    83.36
timer:  DHSCF1            1      49.952      49.952     0.41
timer:  DHSCF2            1     221.037     221.037     1.82
timer:  REORD           218       0.109      23.835     0.20
timer:  POISON           28      44.954    1258.709    10.34
timer:  DHSCF3           27     363.922    9825.906    80.73
timer:  rhoofd           27      18.347     495.364     4.07
timer:  cellXC           27      47.500    1282.495    10.54
timer:  vmat             27     125.792    3396.377    27.91
timer:  MolMec            2       0.002       0.003     0.00
timer:  diagon           26      24.249     630.469     5.18
timer:  r-eigvec         26      23.677     615.600     5.06
timer:  r-buildHS        26       0.003       0.086     0.00
timer:  rdiag            27      26.281     709.592     5.83
timer:  rdiag1           27       0.491      13.269     0.11
timer:  rdiag2           27       5.308     143.329     1.18
timer:  rdiag3           27      15.897     429.215     3.53
timer:  rdiag4           27       1.180      31.850     0.26
timer:  r-buildD         26       0.548      14.238     0.12
timer:  DHSCF4            1      38.956      38.956     0.32
timer:  dfscf             1      35.796      35.796     0.29
timer:  overfsm           1       0.083       0.083     0.00
timer:  optical           1     714.648     714.648     5.87
timer:  phirphiopt        1     119.450     119.450     0.98
timer:  transrate         1     490.852     490.852     4.03
  

elaps: ELAPSED times:
elaps:  Routine       Calls   Time/call    Tot.time        %
elaps:  siesta            1     190.458     190.458   100.00
elaps:  Setup             1       0.858       0.858     0.45
elaps:  bands             1       0.000       0.000     0.00
elaps:  writewave         1       0.001       0.001     0.00
elaps:  KSV_init          1       0.000       0.000     0.00
elaps:  IterMD            1     177.895     177.895    93.40
elaps:  hsparse           1       0.001       0.001     0.00
elaps:  overlap           1       0.246       0.246     0.13
elaps:  IterSCF          26       6.514     169.356    88.92
elaps:  kinefsm           2       0.117       0.234     0.12
elaps:  nlefsm            2       0.413       0.827     0.43
elaps:  DHSCF            27       5.710     154.183    80.95
elaps:  DHSCF1            1       0.777       0.777     0.41
elaps:  DHSCF2            1       3.553       3.553     1.87
elaps:  REORD           218       0.002       0.368     0.19
elaps:  POISON           28       0.691      19.351    10.16
elaps:  DHSCF3           27       5.535     149.449    78.47
elaps:  rhoofd           27       0.034       0.925     0.49
elaps:  cellXC           27       0.747      20.170    10.59
elaps:  vmat             27       1.811      48.885    25.67
elaps:  MolMec            2       0.000       0.000     0.00
elaps:  diagon           26       0.500      12.995     6.82
elaps:  r-eigvec         26       0.490      12.744     6.69
elaps:  r-buildHS        26       0.000       0.001     0.00
elaps:  rdiag            27       0.518      13.982     7.34
elaps:  rdiag1           27       0.008       0.210     0.11
elaps:  rdiag2           27       0.083       2.242     1.18
elaps:  rdiag3           27       0.249       6.720     3.53
elaps:  rdiag4           27       0.019       0.512     0.27
elaps:  r-buildD         26       0.009       0.242     0.13
elaps:  DHSCF4            1       0.269       0.269     0.14
elaps:  dfscf             1       0.257       0.257     0.13
elaps:  overfsm           1       0.002       0.002     0.00
elaps:  optical           1      11.556      11.556     6.07
elaps:  phirphiopt        1       2.098       2.098     1.10
elaps:  transrate         1       7.692       7.692     4.04
  
>> End of run:  10-MAY-2012  17:41:11
