Siesta Version:                                        siesta-3.1
Architecture  : x86_64-unknown-linux-gnu--Intel
Compiler flags: mpif90 -O3 -xSSSE3 -axSSE4.2,SSE4.1 -ip
PARALLEL version
NetCDF support

* Running on   64 nodes in parallel
>> Start of run:   8-MAR-2012  19:44:06

                           ***********************       
                           *  WELCOME TO SIESTA  *       
                           ***********************       

reinit: Reading from standard input
************************** Dump of input data file ****************************
SystemName      optical
SystemLabel     optical
NumberOfAtoms   1282
NumberOfSpecies 4
MD.TypeOfRun    CG
MD.NumCGsteps   0
MD.ConstantVolume  .true.
SolutionMethod  diagon
XC.functional   GGA
XC.authors      PBE
PAO.BasisSize   DZP
DM.NumberPulay  7
DM.MixingWeight 0.1
DirectPhi       .true.
SaveMemory      .true.
MeshCutoff      500 Ry
MaxSCFiterations 200
UseSaveData     .true.
WriteMullikenPop 1
OpticalCalculation      .true.
%block Optical.Mesh
 1 1 1
%endblock Optical.Mesh
Optical.PolarizationType  polarized
%block Optical.Vector
 0.0 0.0 1.0
%endblock Optical.Vector
Optical.Broaden         0.05 eV
Optical.EnergyMinimum   0.001 eV
Optical.EnergyMaximum   100.0 eV
%block ChemicalSpeciesLabel
 1   1   H
 2   6   C
 3   9   F
 4  47   Ag
%endblock ChemicalSpeciesLabel
LatticeConstant 1.0 Ang
%block LatticeParameters
  22.534   24.472   23.649   90.0 90.0 90.0
%endblock LatticeParameters
AtomicCoordinatesFormat Ang
%block AtomicCoordinatesAndAtomicSpecies < struct.coor
%endblock AtomicCoordinatesAndAtomicSpecies
************************** End of input data file *****************************

reinit: -----------------------------------------------------------------------
reinit: System Name: optical
reinit: -----------------------------------------------------------------------
reinit: System Label: optical                                                     
reinit: -----------------------------------------------------------------------

initatom: Reading input for the pseudopotentials and atomic orbitals ----------
 Species number:            1  Label: H Atomic number:           1
 Species number:            2  Label: C Atomic number:           6
 Species number:            3  Label: F Atomic number:           9
 Species number:            4  Label: Ag Atomic number:          47
Ground state valence configuration:   1s01
Reading pseudopotential information in formatted form from H.psf

Valence configuration for pseudopotential generation:
1s( 1.00) rc: 1.33
2p( 0.00) rc: 1.33
3d( 0.00) rc: 0.37
4f( 0.00) rc: 1.33
Ground state valence configuration:   2s02  2p02
Reading pseudopotential information in formatted form from C.psf

Valence configuration for pseudopotential generation:
2s( 2.00) rc: 1.56
2p( 2.00) rc: 1.56
3d( 0.00) rc: 1.56
4f( 0.00) rc: 1.56
Ground state valence configuration:   2s02  2p05
Reading pseudopotential information in formatted form from F.psf

Valence configuration for pseudopotential generation:
2s( 2.00) rc: 1.41
2p( 5.00) rc: 1.41
3d( 0.00) rc: 1.41
4f( 0.00) rc: 1.41
Ground state valence configuration:   5s01  4d10
Reading pseudopotential information in formatted form from Ag.psf

Valence configuration for pseudopotential generation:
5s( 1.00) rc: 2.52
5p( 0.00) rc: 2.72
4d(10.00) rc: 2.52
4f( 0.00) rc: 2.52
For H, standard SIESTA heuristics set lmxkb to 2
 (one more than the basis l, including polarization orbitals).
Use PS.lmax or PS.KBprojectors blocks to override.
For C, standard SIESTA heuristics set lmxkb to 3
 (one more than the basis l, including polarization orbitals).
Use PS.lmax or PS.KBprojectors blocks to override.
For F, standard SIESTA heuristics set lmxkb to 3
 (one more than the basis l, including polarization orbitals).
Use PS.lmax or PS.KBprojectors blocks to override.
For Ag, standard SIESTA heuristics set lmxkb to 3
 (one more than the basis l, including polarization orbitals).
Use PS.lmax or PS.KBprojectors blocks to override.

<basis_specs>
===============================================================================
H                    Z=   1    Mass=  1.0100        Charge= 0.17977+309
Lmxo=0 Lmxkb= 2    BasisType=split      Semic=F
L=0  Nsemic=0  Cnfigmx=1
          n=1  nzeta=2  polorb=1
            splnorm:   0.15000    
               vcte:    0.0000    
               rinn:    0.0000    
                rcs:    0.0000      0.0000    
            lambdas:    1.0000      1.0000    
-------------------------------------------------------------------------------
L=0  Nkbl=1  erefs: 0.17977+309
L=1  Nkbl=1  erefs: 0.17977+309
L=2  Nkbl=1  erefs: 0.17977+309
===============================================================================
</basis_specs>

atom: Called for H                     (Z =   1)

read_vps: Pseudopotential generation method:
read_vps: ATM 3.2.2 Troullier-Martins                       
Total valence charge:    1.00000

xc_check: Exchange-correlation functional:
xc_check: GGA Perdew, Burke & Ernzerhof 1996
V l=0 = -2*Zval/r beyond r=  1.2656
V l=1 = -2*Zval/r beyond r=  1.2498
V l=2 = -2*Zval/r beyond r=  0.3563
All V_l potentials equal beyond r=  1.2656
This should be close to max(r_c) in ps generation
All pots = -2*Zval/r beyond r=  1.2656

VLOCAL1: 99.0% of the norm of Vloc inside     27.100 Ry
VLOCAL1: 99.9% of the norm of Vloc inside     61.762 Ry
atom: Maximum radius for 4*pi*r*r*local-pseudopot. charge    1.48935
atom: Maximum radius for r*vlocal+2*Zval:    1.24984
GHOST: No ghost state for L =  0
GHOST: No ghost state for L =  1
GHOST: No ghost state for L =  2

KBgen: Kleinman-Bylander projectors: 
   l= 0   rc=  1.398961   el= -0.477209   Ekb= -2.001853   kbcos= -0.352188
   l= 1   rc=  1.470814   el=  0.001006   Ekb= -0.423408   kbcos= -0.024395
   l= 2   rc=  1.489346   el=  0.001895   Ekb= -0.481957   kbcos= -0.001574

KBgen: Total number of  Kleinman-Bylander projectors:    9
atom: -------------------------------------------------------------------------

atom: SANKEY-TYPE ORBITALS:
atom: Selected multiple-zeta basis: split     

SPLIT: Orbitals with angular momentum L= 0

SPLIT: Basis orbitals for state 1s

SPLIT: PAO cut-off radius determined from an
SPLIT: energy shift=  0.020000 Ry

   izeta = 1
                 lambda =    1.000000
                     rc =    4.708991
                 energy =   -0.457764
                kinetic =    0.979534
    potential(screened) =   -1.437298
       potential(ionic) =   -1.965615

   izeta = 2
                 rmatch =    3.759707
              splitnorm =    0.150000
                 energy =   -0.339003
                kinetic =    1.582546
    potential(screened) =   -1.921548
       potential(ionic) =   -2.471878

POLgen: Perturbative polarization orbital with L=  1

POLgen: Polarization orbital for state 1s

   izeta = 1
                     rc =    4.708991
                 energy =    0.764951
                kinetic =    1.476882
    potential(screened) =   -0.711931
       potential(ionic) =   -1.204335
atom: Total number of Sankey-type orbitals:  5

atm_pop: Valence configuration (for local Pseudopot. screening):
 1s( 1.00)                                                            
Vna: chval, zval:    1.00000   1.00000

Vna:  Cut-off radius for the neutral-atom potential:   4.708991

atom: _________________________________________________________________________

<basis_specs>
===============================================================================
C                    Z=   6    Mass=  12.010        Charge= 0.17977+309
Lmxo=1 Lmxkb= 3    BasisType=split      Semic=F
L=0  Nsemic=0  Cnfigmx=2
          n=1  nzeta=2  polorb=0
            splnorm:   0.15000    
               vcte:    0.0000    
               rinn:    0.0000    
                rcs:    0.0000      0.0000    
            lambdas:    1.0000      1.0000    
L=1  Nsemic=0  Cnfigmx=2
          n=1  nzeta=2  polorb=1
            splnorm:   0.15000    
               vcte:    0.0000    
               rinn:    0.0000    
                rcs:    0.0000      0.0000    
            lambdas:    1.0000      1.0000    
-------------------------------------------------------------------------------
L=0  Nkbl=1  erefs: 0.17977+309
L=1  Nkbl=1  erefs: 0.17977+309
L=2  Nkbl=1  erefs: 0.17977+309
L=3  Nkbl=1  erefs: 0.17977+309
===============================================================================
</basis_specs>

atom: Called for C                     (Z =   6)

read_vps: Pseudopotential generation method:
read_vps: ATM 3.2.2 Troullier-Martins                       
Total valence charge:    4.00000

xc_check: Exchange-correlation functional:
xc_check: GGA Perdew, Burke & Ernzerhof 1996
V l=0 = -2*Zval/r beyond r=  1.5227
V l=1 = -2*Zval/r beyond r=  1.5227
V l=2 = -2*Zval/r beyond r=  1.5227
V l=3 = -2*Zval/r beyond r=  1.5227
All V_l potentials equal beyond r=  1.4851
This should be close to max(r_c) in ps generation
All pots = -2*Zval/r beyond r=  1.5227

VLOCAL1: 99.0% of the norm of Vloc inside     19.682 Ry
VLOCAL1: 99.9% of the norm of Vloc inside     44.856 Ry
atom: Maximum radius for 4*pi*r*r*local-pseudopot. charge    1.79142
atom: Maximum radius for r*vlocal+2*Zval:    1.54183
GHOST: No ghost state for L =  0
GHOST: No ghost state for L =  1
GHOST: No ghost state for L =  2
GHOST: No ghost state for L =  3

KBgen: Kleinman-Bylander projectors: 
   l= 0   rc=  1.661951   el= -1.010689   Ekb=  5.289847   kbcos=  0.316429
   l= 1   rc=  1.661951   el= -0.388490   Ekb= -4.102504   kbcos= -0.351025
   l= 2   rc=  1.747182   el=  0.001971   Ekb= -1.006005   kbcos= -0.008530
   l= 3   rc=  1.791422   el=  0.003065   Ekb= -0.421399   kbcos= -0.001072

KBgen: Total number of  Kleinman-Bylander projectors:   16
atom: -------------------------------------------------------------------------

atom: SANKEY-TYPE ORBITALS:
atom: Selected multiple-zeta basis: split     

SPLIT: Orbitals with angular momentum L= 0

SPLIT: Basis orbitals for state 2s

SPLIT: PAO cut-off radius determined from an
SPLIT: energy shift=  0.020000 Ry

   izeta = 1
                 lambda =    1.000000
                     rc =    4.088342
                 energy =   -0.990050
                kinetic =    0.909804
    potential(screened) =   -1.899854
       potential(ionic) =   -5.513925

   izeta = 2
                 rmatch =    3.347176
              splitnorm =    0.150000
                 energy =   -0.836186
                kinetic =    1.375045
    potential(screened) =   -2.211230
       potential(ionic) =   -6.057915

SPLIT: Orbitals with angular momentum L= 1

SPLIT: Basis orbitals for state 2p

SPLIT: PAO cut-off radius determined from an
SPLIT: energy shift=  0.020000 Ry

   izeta = 1
                 lambda =    1.000000
                     rc =    4.870301
                 energy =   -0.368677
                kinetic =    2.532104
    potential(screened) =   -2.900781
       potential(ionic) =   -6.401132

   izeta = 2
                 rmatch =    3.475094
              splitnorm =    0.150000
                 energy =   -0.205777
                kinetic =    3.787472
    potential(screened) =   -3.993249
       potential(ionic) =   -7.860448

POLgen: Perturbative polarization orbital with L=  2

POLgen: Polarization orbital for state 2p

   izeta = 1
                     rc =    4.870301
                 energy =    1.296521
                kinetic =    2.641128
    potential(screened) =   -1.344607
       potential(ionic) =   -4.300412
atom: Total number of Sankey-type orbitals: 13

atm_pop: Valence configuration (for local Pseudopot. screening):
 2s( 2.00)                                                            
 2p( 2.00)                                                            
Vna: chval, zval:    4.00000   4.00000

Vna:  Cut-off radius for the neutral-atom potential:   4.870301

atom: _________________________________________________________________________

<basis_specs>
===============================================================================
F                    Z=   9    Mass=  19.000        Charge= 0.17977+309
Lmxo=1 Lmxkb= 3    BasisType=split      Semic=F
L=0  Nsemic=0  Cnfigmx=2
          n=1  nzeta=2  polorb=0
            splnorm:   0.15000    
               vcte:    0.0000    
               rinn:    0.0000    
                rcs:    0.0000      0.0000    
            lambdas:    1.0000      1.0000    
L=1  Nsemic=0  Cnfigmx=2
          n=1  nzeta=2  polorb=1
            splnorm:   0.15000    
               vcte:    0.0000    
               rinn:    0.0000    
                rcs:    0.0000      0.0000    
            lambdas:    1.0000      1.0000    
-------------------------------------------------------------------------------
L=0  Nkbl=1  erefs: 0.17977+309
L=1  Nkbl=1  erefs: 0.17977+309
L=2  Nkbl=1  erefs: 0.17977+309
L=3  Nkbl=1  erefs: 0.17977+309
===============================================================================
</basis_specs>

atom: Called for F                     (Z =   9)

read_vps: Pseudopotential generation method:
read_vps: ATM 3.2.2 Troullier-Martins                       
Total valence charge:    7.00000

xc_check: Exchange-correlation functional:
xc_check: GGA Perdew, Burke & Ernzerhof 1996
V l=0 = -2*Zval/r beyond r=  1.3199
V l=1 = -2*Zval/r beyond r=  1.3199
V l=2 = -2*Zval/r beyond r=  1.3199
V l=3 = -2*Zval/r beyond r=  1.3199
All V_l potentials equal beyond r=  1.3199
This should be close to max(r_c) in ps generation
All pots = -2*Zval/r beyond r=  1.3199

VLOCAL1: 99.0% of the norm of Vloc inside     24.916 Ry
VLOCAL1: 99.9% of the norm of Vloc inside     56.784 Ry
atom: Maximum radius for 4*pi*r*r*local-pseudopot. charge    1.61221
atom: Maximum radius for r*vlocal+2*Zval:    1.38760
GHOST: No ghost state for L =  0
GHOST: No ghost state for L =  1
GHOST: No ghost state for L =  2
GHOST: No ghost state for L =  3

KBgen: Kleinman-Bylander projectors: 
   l= 0   rc=  1.495695   el= -2.197581   Ekb=  5.601452   kbcos=  0.238748
   l= 1   rc=  1.458760   el= -0.816694   Ekb= -9.171639   kbcos= -0.518972
   l= 2   rc=  1.552860   el=  0.001997   Ekb= -1.845583   kbcos= -0.004774
   l= 3   rc=  1.592177   el=  0.003102   Ekb= -0.701684   kbcos= -0.000616

KBgen: Total number of  Kleinman-Bylander projectors:   16
atom: -------------------------------------------------------------------------

atom: SANKEY-TYPE ORBITALS:
atom: Selected multiple-zeta basis: split     

SPLIT: Orbitals with angular momentum L= 0

SPLIT: Basis orbitals for state 2s

SPLIT: PAO cut-off radius determined from an
SPLIT: energy shift=  0.020000 Ry

   izeta = 1
                 lambda =    1.000000
                     rc =    3.012240
                 energy =   -2.180114
                kinetic =    2.050927
    potential(screened) =   -4.231041
       potential(ionic) =  -15.028689

   izeta = 2
                 rmatch =    2.203728
              splitnorm =    0.150000
                 energy =   -1.860487
                kinetic =    3.102500
    potential(screened) =   -4.962987
       potential(ionic) =  -16.601125

SPLIT: Orbitals with angular momentum L= 1

SPLIT: Basis orbitals for state 2p

SPLIT: PAO cut-off radius determined from an
SPLIT: energy shift=  0.020000 Ry

   izeta = 1
                 lambda =    1.000000
                     rc =    3.588372
                 energy =   -0.798309
                kinetic =    6.054328
    potential(screened) =   -6.852638
       potential(ionic) =  -17.288549

   izeta = 2
                 rmatch =    2.259523
              splitnorm =    0.150000
                 energy =   -0.439465
                kinetic =    8.943362
    potential(screened) =   -9.382827
       potential(ionic) =  -20.998650

POLgen: Perturbative polarization orbital with L=  2

POLgen: Polarization orbital for state 2p

   izeta = 1
                     rc =    3.588372
                 energy =    3.121679
                kinetic =    6.160101
    potential(screened) =   -3.038422
       potential(ionic) =  -11.529161
atom: Total number of Sankey-type orbitals: 13

atm_pop: Valence configuration (for local Pseudopot. screening):
 2s( 2.00)                                                            
 2p( 5.00)                                                            
Vna: chval, zval:    7.00000   7.00000

Vna:  Cut-off radius for the neutral-atom potential:   3.588372

atom: _________________________________________________________________________

<basis_specs>
===============================================================================
Ag                   Z=  47    Mass=  107.87        Charge= 0.17977+309
Lmxo=2 Lmxkb= 3    BasisType=split      Semic=F
L=0  Nsemic=0  Cnfigmx=5
          n=1  nzeta=2  polorb=1
            splnorm:   0.15000    
               vcte:    0.0000    
               rinn:    0.0000    
                rcs:    0.0000      0.0000    
            lambdas:    1.0000      1.0000    
L=1  Nsemic=0  Cnfigmx=5
L=2  Nsemic=0  Cnfigmx=4
          n=1  nzeta=2  polorb=0
            splnorm:   0.15000    
               vcte:    0.0000    
               rinn:    0.0000    
                rcs:    0.0000      0.0000    
            lambdas:    1.0000      1.0000    
-------------------------------------------------------------------------------
L=0  Nkbl=1  erefs: 0.17977+309
L=1  Nkbl=1  erefs: 0.17977+309
L=2  Nkbl=1  erefs: 0.17977+309
L=3  Nkbl=1  erefs: 0.17977+309
===============================================================================
</basis_specs>

atom: Called for Ag                    (Z =  47)

read_vps: Pseudopotential generation method:
read_vps: ATM 3.2.2 Troullier-Martins                       
Total valence charge:   11.00000

xc_check: Exchange-correlation functional:
xc_check: GGA Perdew, Burke & Ernzerhof 1996
V l=0 = -2*Zval/r beyond r=  2.4592
V l=1 = -2*Zval/r beyond r=  2.6507
V l=2 = -2*Zval/r beyond r=  2.4592
V l=3 = -2*Zval/r beyond r=  2.4592
All V_l potentials equal beyond r=  2.6507
This should be close to max(r_c) in ps generation
All pots = -2*Zval/r beyond r=  2.6507

VLOCAL1: 99.0% of the norm of Vloc inside      6.178 Ry
VLOCAL1: 99.9% of the norm of Vloc inside     14.079 Ry
atom: Maximum radius for 4*pi*r*r*local-pseudopot. charge    3.19739
atom: Maximum radius for r*vlocal+2*Zval:    2.82168
GHOST: No ghost state for L =  0
GHOST: No ghost state for L =  1
GHOST: No ghost state for L =  2
GHOST: No ghost state for L =  3

KBgen: Kleinman-Bylander projectors: 
   l= 0   rc=  2.966357   el= -0.323666   Ekb=  3.565490   kbcos=  0.247453
   l= 1   rc=  3.003670   el= -0.054265   Ekb=  1.619308   kbcos=  0.223076
   l= 2   rc=  2.786631   el= -0.547066   Ekb= -7.840816   kbcos= -0.714112
   l= 3   rc=  3.079709   el=  0.002953   Ekb= -2.732950   kbcos= -0.012571

KBgen: Total number of  Kleinman-Bylander projectors:   16
atom: -------------------------------------------------------------------------

atom: SANKEY-TYPE ORBITALS:
atom: Selected multiple-zeta basis: split     

SPLIT: Orbitals with angular momentum L= 0

SPLIT: Basis orbitals for state 5s

SPLIT: PAO cut-off radius determined from an
SPLIT: energy shift=  0.020000 Ry

   izeta = 1
                 lambda =    1.000000
                     rc =    6.684855
                 energy =   -0.305483
                kinetic =    0.327133
    potential(screened) =   -0.632616
       potential(ionic) =   -8.088030

   izeta = 2
                 rmatch =    6.279837
              splitnorm =    0.150000
                 energy =   -0.253539
                kinetic =    0.499634
    potential(screened) =   -0.753173
       potential(ionic) =   -8.691029

SPLIT: Orbitals with angular momentum L= 2

SPLIT: Basis orbitals for state 4d

SPLIT: PAO cut-off radius determined from an
SPLIT: energy shift=  0.020000 Ry

   izeta = 1
                 lambda =    1.000000
                     rc =    3.954440
                 energy =   -0.527442
                kinetic =    6.210364
    potential(screened) =   -6.737807
       potential(ionic) =  -18.733043

   izeta = 2
                 rmatch =    2.490121
              splitnorm =    0.150000
                 energy =   -0.148928
                kinetic =    8.576261
    potential(screened) =   -8.725189
       potential(ionic) =  -21.658221

POLgen: Perturbative polarization orbital with L=  1

POLgen: Polarization orbital for state 5s

   izeta = 1
                     rc =    6.684855
                 energy =   -0.001728
                kinetic =    0.597115
    potential(screened) =   -0.598843
       potential(ionic) =   -7.554613
atom: Total number of Sankey-type orbitals: 15

atm_pop: Valence configuration (for local Pseudopot. screening):
 5s( 1.00)                                                            
 5p( 0.00)                                                            
 4d(10.00)                                                            
Vna: chval, zval:   11.00000  11.00000

Vna:  Cut-off radius for the neutral-atom potential:   6.684855

atom: _________________________________________________________________________

prinput: Basis input ----------------------------------------------------------

PAO.BasisType split     

%block ChemicalSpeciesLabel
    1    1 H                       # Species index, atomic number, species label
    2    6 C                       # Species index, atomic number, species label
    3    9 F                       # Species index, atomic number, species label
    4   47 Ag                      # Species index, atomic number, species label
%endblock ChemicalSpeciesLabel

%block PAO.Basis                 # Define Basis set
H                     1                    # Species label, number of l-shells
 n=1   0   2 P   1                   # n, l, Nzeta, Polarization, NzetaPol
   4.709      3.760   
   1.000      1.000   
C                     2                    # Species label, number of l-shells
 n=2   0   2                         # n, l, Nzeta 
   4.088      3.347   
   1.000      1.000   
 n=2   1   2 P   1                   # n, l, Nzeta, Polarization, NzetaPol
   4.870      3.475   
   1.000      1.000   
F                     2                    # Species label, number of l-shells
 n=2   0   2                         # n, l, Nzeta 
   3.012      2.204   
   1.000      1.000   
 n=2   1   2 P   1                   # n, l, Nzeta, Polarization, NzetaPol
   3.588      2.260   
   1.000      1.000   
Ag                    2                    # Species label, number of l-shells
 n=5   0   2 P   1                   # n, l, Nzeta, Polarization, NzetaPol
   6.685      6.280   
   1.000      1.000   
 n=4   2   2                         # n, l, Nzeta 
   3.954      2.490   
   1.000      1.000   
%endblock PAO.Basis

prinput: ----------------------------------------------------------------------

Dumping basis to NetCDF file H.ion.nc
Dumping basis to NetCDF file C.ion.nc
Dumping basis to NetCDF file F.ion.nc
Dumping basis to NetCDF file Ag.ion.nc
coor:   Atomic-coordinates input format  =     Cartesian coordinates
coor:                                          (in Angstroms)

siesta: WARNING: XV file not found

siesta: Atomic coordinates (Bohr) and species
siesta:     25.20707  37.72840  32.20662  2        1
siesta:     23.17561  38.14603  32.18394  1        2
siesta:     26.06878  38.37279  30.43027  1        3
siesta:     26.08201  38.69216  33.81099  1        4
siesta:     25.62092  34.87491  32.50141  2        5
siesta:     26.18972  33.99997  30.14681  3        6
siesta:     27.77899  34.54799  33.85824  3        7
siesta:     23.49497  33.22140  33.64281  2        8
siesta:     22.35925  34.43460  34.87491  1        9
siesta:     22.29689  32.59590  32.11969  1       10
siesta:     24.15638  30.81200  35.12057  2       11
siesta:     22.14382  29.22652  34.84656  3       12
siesta:     26.06689  29.57045  33.94516  3       13
siesta:     24.73652  31.01609  37.99296  2       14
siesta:     26.39382  32.24630  38.22917  1       15
siesta:     23.13215  31.96662  38.87924  1       16
siesta:     25.32045  28.58212  39.52175  2       17
siesta:     27.61080  27.67505  38.72995  3       18
siesta:     25.68706  29.30588  41.96139  3       19
siesta:     23.42316  26.35980  39.45750  2       20
siesta:     21.52399  27.18561  39.65970  1       21
siesta:     23.54600  25.50186  37.58856  1       22
siesta:     23.59702  24.17339  41.39258  2       23
siesta:     25.79666  22.92995  40.95038  3       24
siesta:     23.84835  25.11447  43.74151  3       25
siesta:     21.42950  22.21185  41.51541  2       26
siesta:     20.30134  22.68428  43.18404  1       27
siesta:     20.22008  22.56901  39.88647  1       28
siesta:     21.92839  19.33946  41.65147  2       29
siesta:     23.80300  18.90861  43.34844  3       30
siesta:     19.84591  18.30012  42.78909  3       31
siesta:     22.47263  17.77477  39.21750  2       32
siesta:     21.88871  15.82079  39.56710  1       33
siesta:     21.25376  18.45696  37.68493  1       34
siesta:     25.19006  17.64249  38.09689  2       35
siesta:     25.08046  15.93418  36.19205  3       36
siesta:     25.64548  19.85914  36.92715  3       37
siesta:     27.53143  16.97731  39.68804  2       38
siesta:     27.85457  18.61570  40.90314  1       39
siesta:     26.97585  15.38616  40.88424  1       40
siesta:     30.09390  16.35181  38.49374  2       41
siesta:     31.66993  15.92095  40.48173  3       42
siesta:     29.92005  14.05012  37.33911  3       43
siesta:     31.32789  18.25098  36.65881  2       44
siesta:     30.36035  18.03933  34.85790  1       45
siesta:     30.89892  20.12370  37.43171  1       46
siesta:     34.19083  18.13949  36.09567  2       47
siesta:     34.72562  20.19362  34.61980  3       48
siesta:     35.44372  18.62326  38.26697  3       49
siesta:     35.37758  15.81323  34.79743  2       50
siesta:     33.92060  14.36003  34.58956  1       51
siesta:     35.92371  16.43873  32.92471  1       52
siesta:     37.71895  14.49232  35.96717  2       53
siesta:     38.56555  12.76511  34.29098  3       54
siesta:     39.60868  16.25165  36.06544  3       55
siesta:     37.46950  13.17518  38.56177  2       56
siesta:     37.22384  14.65105  39.99040  1       57
siesta:     35.74418  12.04134  38.49752  1       58
siesta:     39.61245  11.45741  39.51419  2       59
siesta:     39.66915   9.33903  38.05532  3       60
siesta:     41.86690  12.59692  38.96617  3       61
siesta:     39.72584  10.54090  42.29020  2       62
siesta:     40.97117   8.86093  42.30721  1       63
siesta:     40.71606  12.00732  43.38624  1       64
siesta:     37.30888   9.92863  43.78497  2       65
siesta:     37.97217   9.75099  46.24729  3       66
siesta:     35.73662  11.99599  43.70749  3       67
siesta:     35.74607   7.55135  43.13113  2       68
siesta:     34.71617   7.97843  41.37368  1       69
siesta:     37.07266   6.02445  42.70594  1       70
siesta:     33.78643   6.54412  45.03597  2       71
siesta:     32.03087   8.34503  45.52163  3       72
siesta:     32.45228   4.75077  43.75096  3       73
siesta:     34.65570   5.31391  47.53608  2       74
siesta:     34.04721   3.35427  47.47183  1       75
siesta:     36.70417   5.31013  47.53986  1       76
siesta:     33.78832   6.27956  50.16091  2       77
siesta:     31.53198   5.20242  50.66925  3       78
siesta:     35.39080   5.17785  51.81253  3       79
siesta:     33.69950   9.14439  50.76940  2       80
siesta:     35.37758  10.02878  49.96438  1       81
siesta:     32.06489   9.89272  49.78485  1       82
siesta:     33.47084  10.02500  53.54541  2       83
siesta:     32.23307  12.30023  53.50195  3       84
siesta:     31.75875   8.53401  54.71326  3       85
siesta:     35.82544  10.31791  55.23861  2       86
siesta:     37.14258   8.78345  54.81153  1       87
siesta:     36.71928  12.10559  54.70003  1       88
siesta:     35.52876  10.33681  58.14879  2       89
siesta:     37.80210  11.10592  59.06908  3       90
siesta:     33.94516  12.26433  58.76673  3       91
siesta:     34.75397   7.99921  59.69836  2       92
siesta:     35.30388   8.35826  61.64856  1       93
siesta:     32.69983   7.95764  59.65301  1       94
siesta:     35.72151   5.35927  58.95948  2       95
siesta:     34.50452   4.59204  56.82976  3       96
siesta:     38.14792   5.69186  58.17713  3       97
siesta:     35.67237   3.11049  60.83031  2       98
siesta:     35.64214   3.86827  62.74460  1       99
siesta:     33.90170   2.10705  60.53173  1      100
siesta:     37.78887   1.09415  60.76417  2      101
siesta:     39.88080   2.08248  61.90178  3      102
siesta:     37.12557  -0.81258  62.37988  3      103
siesta:     38.77720  -0.10205  58.29996  2      104
siesta:     39.56332   1.43241  57.18125  1      105
siesta:     40.34945  -1.32659  58.83854  1      106
siesta:     37.06510  -1.71587  56.54630  2      107
siesta:     38.25374  -3.95520  56.23638  3      108
siesta:     34.90326  -2.34326  57.82564  3      109
siesta:     36.30921  -0.74644  53.89879  2      110
siesta:     35.13191   0.93164  54.20304  1      111
siesta:     38.02319  -0.12094  52.99550  1      112
siesta:     34.87302  -2.39617  51.95615  2      113
siesta:     32.33890  -2.18830  52.45126  3      114
siesta:     35.11490  -1.11683  49.73950  3      115
siesta:     35.51364  -5.18352  51.40624  2      116
siesta:     35.50041  -5.38572  49.35211  1      117
siesta:     37.43171  -5.48021  52.01095  1      118
siesta:     33.92816  -7.39450  52.44181  2      119
siesta:     33.64092  -7.07136  54.98916  3      120
siesta:     31.56222  -7.09592  51.52907  3      121
siesta:     34.68216 -10.18374  52.06575  2      122
siesta:     36.33000 -10.51444  53.26762  1      123
siesta:     33.14959 -11.31757  52.81787  1      124
siesta:     35.27553 -11.16829  49.36345  2      125
siesta:     33.13258 -10.87538  47.94804  3      126
siesta:     36.98573  -9.59792  48.29953  3      127
siesta:     36.26764 -13.89894  48.93448  2      128
siesta:     36.86479 -14.06713  46.96727  1      129
siesta:     37.95516 -14.12571  50.07587  1      130
siesta:     34.54988 -16.19118  49.48628  2      131
siesta:     36.02008 -18.28122  49.19526  3      132
siesta:     34.05288 -16.18929  52.00528  3      133
siesta:     32.01008 -16.68251  48.13323  2      134
siesta:     31.08790 -18.21886  49.13479  1      135
siesta:     30.86302 -14.97420  48.43181  1      136
siesta:     31.79465 -17.27399  45.30431  2      137
siesta:     30.28287 -15.43151  44.31410  3      138
siesta:     34.04532 -16.81668  44.14591  3      139
siesta:     30.70050 -19.81757  44.32165  2      140
siesta:     28.85613 -20.08780  45.20983  1      141
siesta:     30.39815 -19.57379  42.29965  1      142
siesta:     32.18016 -22.32145  44.68259  2      143
siesta:     31.61891 -23.79355  42.65869  3      144
siesta:     34.68972 -21.82257  44.35567  3      145
siesta:     31.84946 -23.92583  47.08632  2      146
siesta:     32.92660 -23.02065  48.58866  1      147
siesta:     29.84068 -23.78599  47.59466  1      148
siesta:     32.52031 -26.77176  47.07688  2      149
siesta:     32.54866 -27.57867  49.50706  3      150
siesta:     30.48885 -27.97363  46.11123  3      151
siesta:     34.90515 -27.81678  45.75029  2      152
siesta:     34.19461 -29.20006  44.37457  1      153
siesta:     35.77064 -26.30500  44.65425  1      154
siesta:     37.00085 -29.15282  47.22238  2      155
siesta:     35.96717 -31.30333  48.18615  3      156
siesta:     38.66192 -30.02965  45.47061  3      157
siesta:     38.55799 -27.90560  49.35778  2      158
siesta:     37.52431 -28.21173  51.10955  1      159
siesta:     40.32677 -28.95062  49.50518  1      160
siesta:     39.23262 -25.05967  49.23494  2      161
siesta:     39.38191 -24.40582  46.74806  3      162
siesta:     37.18038 -23.75198  50.08721  3      163
siesta:     41.60990 -24.01276  50.55019  2      164
siesta:     42.04075 -25.21085  52.20182  1      165
siesta:     43.17837 -24.26598  49.21416  1      166
siesta:     41.65903 -21.23108  51.44026  2      167
siesta:     44.11000 -20.66227  51.98639  3      168
siesta:     41.14880 -19.74954  49.41636  3      169
siesta:     40.03008 -20.32968  53.70037  2      170
siesta:     39.11735 -18.58735  53.11455  1      171
siesta:     38.54287 -21.70729  53.96682  1      172
siesta:     41.19605 -19.87993  56.32331  2      173
siesta:     39.28931 -19.98386  58.06753  3      174
siesta:     42.60200 -21.94918  56.91290  3      175
siesta:     42.76830 -17.47808  56.88078  2      176
siesta:     42.93082 -17.30612  58.93869  1      177
siesta:     44.65236 -17.78233  56.12678  1      178
siesta:     41.91792 -14.89483  55.85466  2      179
siesta:     42.47728 -14.78144  53.35833  3      180
siesta:     39.33466 -14.81735  55.99639  3      181
siesta:     42.91192 -12.49865  57.16046  2      182
siesta:     41.89524 -12.35314  58.93491  1      183
siesta:     44.89235 -12.88794  57.63478  1      184
siesta:     42.85901  -9.89461  55.87166  2      185
siesta:     44.85456  -9.66406  54.25784  3      186
siesta:     40.84456  -9.81524  54.29752  3      187
siesta:     42.79475  -7.49466  57.51384  2      188
siesta:     43.20861  -5.90540  56.27040  1      189
siesta:     40.86534  -7.28112  58.21493  1      190
siesta:     44.58433  -7.30379  59.82875  2      191
siesta:     43.63190  -8.86660  61.61454  3      192
siesta:     46.85956  -8.34314  59.24105  3      193
siesta:     45.08510  -4.72999  61.12700  2      194
siesta:     43.26341  -3.91362  61.62588  1      195
siesta:     46.06398  -5.14006  62.89956  1      196
siesta:     46.61389  -2.62672  59.81552  2      197
siesta:     45.06243  -1.41163  58.14879  3      198
siesta:     47.04853  -0.80124  61.58053  3      199
siesta:     49.20282  -3.17285  58.57397  2      200
siesta:     50.41980  -1.60060  59.09554  1      201
siesta:     49.94737  -4.89628  59.43002  1      202
siesta:     49.48439  -3.47332  55.66568  2      203
siesta:     47.42648  -4.71487  54.80397  3      204
siesta:     49.28030  -1.12817  54.68303  3      205
siesta:     51.85411  -4.69786  54.52051  2      206
siesta:     53.34699  -3.28624  54.66224  1      207
siesta:     52.40213  -6.32492  55.68647  1      208
siesta:     51.81631  -5.55391  51.71805  2      209
siesta:     51.17758  -3.51678  50.25162  3      210
siesta:     54.26162  -6.07169  51.09255  3      211
siesta:     50.14012  -7.78190  50.82987  2      212
siesta:     49.82454  -9.06124  52.44181  1      213
siesta:     48.33165  -6.98254  50.31776  1      214
siesta:     51.04530  -9.42974  48.60567  2      215
siesta:     52.76117 -11.09081  49.57132  3      216
siesta:     49.05542 -10.93585  47.93481  3      217
siesta:     52.17347  -8.26189  46.17548  2      218
siesta:     51.02263  -6.63105  45.67281  1      219
siesta:     54.06320  -7.60426  46.64791  1      220
siesta:     52.39268  -9.89461  43.75852  2      221
siesta:     50.03052 -10.40106  42.86845  3      222
siesta:     53.41880  -8.41495  41.91225  3      223
siesta:     53.86666 -12.40606  43.77930  2      224
siesta:     53.59832 -13.32068  45.63690  1      225
siesta:     52.95960 -13.61737  42.42815  1      226
siesta:     56.71637 -12.40795  43.17837  2      227
siesta:     56.99983 -11.74465  40.70094  3      228
siesta:     57.78974 -10.45397  44.47850  3      229
siesta:     58.27918 -14.83436  43.66970  2      230
siesta:     59.98182 -14.21642  44.64858  1      231
siesta:     57.21526 -16.02488  44.98117  1      232
siesta:     59.12955 -16.57857  41.49084  2      233
siesta:     60.90779 -15.33702  40.08300  3      234
siesta:     60.46559 -18.50043  42.53208  3      235
siesta:     57.16991 -17.64438  39.60679  2      236
siesta:     55.60332 -16.31212  39.57466  1      237
siesta:     58.04863 -17.67839  37.72462  1      238
siesta:     55.97560 -20.24842  40.04520  2      239
siesta:     57.59510 -21.94351  38.97751  3      240
siesta:     55.94914 -20.85125  42.50941  3      241
siesta:     53.30542 -20.87392  38.97751  2      242
siesta:     53.37912 -20.43173  36.95739  1      243
siesta:     53.03707 -22.91294  39.13435  1      244
siesta:     50.88279 -19.62481  40.00930  2      245
siesta:     51.11522 -17.04156  39.93749  3      246
siesta:     49.07621 -20.04433  38.25941  3      247
siesta:     49.68092 -20.46574  42.54720  2      248
siesta:     47.63246 -20.45818  42.27130  1      249
siesta:     50.22894 -22.40649  42.85712  1      250
siesta:     50.20815 -18.97475  45.01518  2      251
siesta:     52.57220 -17.98453  44.84322  3      252
siesta:     48.66992 -16.92061  45.08888  3      253
siesta:     49.94359 -20.32968  47.59277  2      254
siesta:     47.95182 -20.80589  47.80631  1      255
siesta:     50.95271 -22.12870  47.46994  1      256
siesta:     50.80720 -19.04089  50.05886  2      257
siesta:     51.07176 -20.90983  51.79174  3      258
siesta:     53.21471 -18.16783  49.71304  3      259
siesta:     49.22927 -16.89227  51.23994  2      260
siesta:     49.39935 -15.28978  49.96438  1      261
siesta:     47.24128 -17.47808  51.21349  1      262
siesta:     49.85666 -15.95307  53.94225  2      263
siesta:     48.23528 -14.01610  54.39012  3      264
siesta:     49.25951 -17.80879  55.61088  3      265
siesta:     52.54764 -15.04978  54.59610  2      266
siesta:     53.77785 -16.70519  54.56397  1      267
siesta:     53.15802 -13.83469  53.04841  1      268
siesta:     53.08999 -13.61737  57.06597  2      269
siesta:     53.15802 -11.09459  56.50661  3      270
siesta:     51.06798 -13.92918  58.63067  3      271
siesta:     55.48238 -14.31090  58.56453  2      272
siesta:     55.18191 -16.15528  59.37333  1      273
siesta:     56.98849 -14.44129  57.19258  1      274
siesta:     56.55953 -12.65172  60.73204  2      275
siesta:     57.05463 -10.30279  59.77962  3      276
siesta:     54.67358 -12.21897  62.45925  3      277
siesta:     58.91979 -13.55690  62.18902  2      278
siesta:     58.41335 -15.28222  63.19625  1      279
siesta:     60.34654 -14.04823  60.79251  1      280
siesta:     60.22371 -11.80701  64.14867  2      281
siesta:     58.37933 -10.55601  65.45069  3      282
siesta:     61.31030 -13.38116  65.86454  3      283
siesta:     62.23438  -9.87949  63.28695  2      284
siesta:     63.85198 -10.93963  62.49894  1      285
siesta:     61.41990  -8.82691  61.75249  1      286
siesta:     63.26806  -7.86126  65.14833  2      287
siesta:     64.96881  -6.46854  63.84820  3      288
siesta:     61.40479  -6.13405  65.56407  3      289
siesta:     64.53417  -8.59448  67.69569  2      290
siesta:     65.74738 -10.22342  67.31396  1      291
siesta:     65.74927  -6.99955  68.20024  1      292
siesta:     62.96948  -9.20108  70.08241  2      293
siesta:     63.63844  -7.46253  71.86253  3      294
siesta:     60.50528  -8.70597  69.62699  3      295
siesta:     63.15656 -11.82402  71.34475  2      296
siesta:     63.62332 -13.16951  69.85375  1      297
siesta:     64.76850 -11.75599  72.62976  1      298
siesta:     60.87188 -12.95975  72.74882  2      299
siesta:     59.09365 -13.62682  71.02161  3      300
siesta:     61.72982 -15.20096  73.67667  3      301
siesta:     59.56986 -11.45930  74.90121  2      302
siesta:     60.98149 -10.27822  75.81206  1      303
siesta:     58.20737 -10.20075  73.98848  1      304
siesta:     58.13367 -12.92951  76.97802  2      305
siesta:     56.99038 -14.98553  75.92356  3      306
siesta:     59.85143 -13.93863  78.61264  3      307
siesta:     56.15701 -11.54812  78.64665  2      308
siesta:     56.96204 -11.44230  80.55339  1      309
siesta:     56.00961  -9.60170  77.96068  1      310
siesta:     53.46037 -12.63282  78.93389  2      311
siesta:     52.33788 -12.60448  76.60764  3      312
siesta:     53.62856 -15.11782  79.57073  3      313
siesta:     51.58765 -11.40828  80.83118  2      314
siesta:     49.94737 -12.63849  80.93322  1      315
siesta:     52.49094 -11.44797  82.67177  1      316
siesta:     50.62956  -8.68141  80.48347  2      317
siesta:     49.08944  -8.17496  82.47335  3      318
siesta:     52.67425  -7.15073  80.79338  3      319
siesta:     49.32376  -7.81969  78.04005  2      320
siesta:     49.07243  -5.76367  78.25359  1      321
siesta:     50.64657  -8.11827  76.47725  1      322
siesta:     46.72728  -8.83069  77.20668  2      323
siesta:     46.02241  -7.27923  75.26404  3      324
siesta:     47.12412 -11.14750  76.14088  3      325
siesta:     44.51063  -9.07636  79.08129  2      326
siesta:     45.00574 -10.63349  80.34741  1      327
siesta:     44.44260  -7.35104  80.22646  1      328
siesta:     41.81966  -9.58658  78.06462  2      329
siesta:     41.83477  -9.69430  75.51538  3      330
siesta:     41.15258 -11.95252  78.81862  3      331
siesta:     39.61623  -7.89528  78.92633  2      332
siesta:     37.91548  -8.95164  78.57295  1      333
siesta:     39.73151  -7.71575  80.99558  1      334
siesta:     39.15325  -5.27045  77.77927  2      335
siesta:     38.70539  -5.61627  75.28105  3      336
siesta:     36.85156  -4.48054  78.62776  3      337
siesta:     41.04487  -3.06514  78.05895  2      338
siesta:     42.88546  -3.74922  77.49959  1      339
siesta:     40.48551  -1.59493  76.71535  1      340
siesta:     41.37368  -1.70831  80.62898  2      341
siesta:     41.69115  -3.50355  82.43745  3      342
siesta:     43.66025  -0.52345  80.55717  3      343
siesta:     39.36112   0.21921  81.51337  2      344
siesta:     39.45750   1.79146  80.19434  1      345
siesta:     37.48651  -0.65007  81.30928  1      346
siesta:     39.41403   1.45698  84.16088  2      347
siesta:     40.55921   3.74355  83.90198  3      348
siesta:     36.96117   2.04846  84.75236  3      349
siesta:     40.59889   0.10393  86.43800  2      350
siesta:     39.80332  -1.78957  86.52681  1      351
siesta:     42.60389  -0.08693  86.02982  1      352
siesta:     40.43071   1.16029  89.15164  2      353
siesta:     41.10156   3.64528  89.09306  3      354
siesta:     37.95705   1.20376  89.86407  3      355
siesta:     42.00674  -0.00945  91.32105  2      356
siesta:     43.96072  -0.01890  90.68610  1      357
siesta:     41.84044   1.31147  92.90464  1      358
siesta:     41.41147  -2.69664  92.29615  2      359
siesta:     40.79164  -2.53223  94.77169  3      360
siesta:     39.21183  -3.45820  91.22845  3      361
siesta:     43.33144  -4.85849  92.09206  2      362
siesta:     45.12479  -4.12905  92.81772  1      363
siesta:     42.71728  -6.34192  93.40164  1      364
siesta:     43.92481  -6.11705  89.51636  2      365
siesta:     44.30087  -4.22354  87.79293  3      366
siesta:     46.24162  -7.22254  89.72801  3      367
siesta:     42.06721  -8.03890  88.29371  2      368
siesta:     40.17181  -7.27923  88.53937  1      369
siesta:     42.43193  -8.02189  86.25091  1      370
siesta:     41.96705 -10.82058  89.18188  2      371
siesta:     42.08989 -10.79412  91.75380  3      372
siesta:     39.57844 -11.70308  88.67921  3      373
siesta:     43.88324 -12.77077  88.20678  2      374
siesta:     45.77296 -11.92229  88.30883  1      375
siesta:     43.91347 -14.32413  89.54282  1      376
siesta:     43.59411 -13.89894  85.51014  2      377
siesta:     42.10123 -12.37393  84.09474  3      378
siesta:     45.86367 -13.62682  84.35363  3      379
siesta:     42.76830 -16.65605  84.99614  2      380
siesta:     41.55698 -16.62015  83.34262  1      381
siesta:     44.46716 -17.71052  84.51803  1      382
siesta:     41.41147 -18.26610  87.01814  2      383
siesta:     43.22750 -19.05790  88.66787  3      384
siesta:     39.88647 -16.69952  88.36552  3      385
siesta:     39.72773 -20.55834  86.30572  2      386
siesta:     39.22317 -21.43328  88.10474  1      387
siesta:     38.00052 -19.76843  85.48180  1      388
siesta:     40.63858 -22.68239  84.51992  2      389
siesta:     38.75074 -23.04711  82.81350  3      390
siesta:     42.59633 -21.78288  83.09696  3      391
siesta:     41.41714 -25.29777  85.52715  2      392
siesta:     39.95827 -25.89493  86.84996  1      393
siesta:     41.37935 -26.56200  83.90198  1      394
siesta:     44.03820 -25.69462  86.76681  2      395
siesta:     45.84288 -24.86692  85.16621  3      396
siesta:     44.17992 -24.16583  88.82283  3      397
siesta:     44.80353 -28.37614  87.60585  2      398
siesta:     43.22372 -29.13392  88.73590  1      399
siesta:     44.96605 -29.52887  85.88431  1      400
siesta:     47.27530 -28.75597  89.09873  2      401
siesta:     48.81731 -26.73586  88.69433  3      402
siesta:     46.72350 -28.59724  91.58750  3      403
siesta:     48.96660 -31.08790  88.67732  2      404
siesta:     49.79241 -30.90081  86.80460  1      405
siesta:     50.50484 -30.90648  90.04360  1      406
siesta:     47.92158 -33.79021  88.86441  2      407
siesta:     45.78052 -33.98107  87.43955  3      408
siesta:     49.59021 -35.29443  87.59073  3      409
siesta:     47.46616 -35.02231  91.49680  2      410
siesta:     48.11056 -36.98762  91.38152  1      411
siesta:     48.70015 -34.03209  92.81583  1      412
siesta:     44.80920 -35.07711  92.73835  2      413
siesta:     43.63001 -32.84345  92.16198  3      414
siesta:     43.41648 -36.88558  91.52136  3      415
siesta:     44.55787 -35.44939  95.62963  2      416
siesta:     46.26996 -36.40181  96.27969  1      417
siesta:     44.58622 -33.53887  96.46678  1      418
siesta:     42.26752 -36.85156  96.74835  2      419
siesta:     42.15036 -36.31677  99.26735  3      420
siesta:     40.13780 -35.72907  95.80348  3      421
siesta:     41.88958 -39.72773  96.44410  2      422
siesta:     39.89591 -40.06410  96.85228  1      423
siesta:     42.22217 -40.21717  94.48823  1      424
siesta:     43.37301 -41.64958  98.07682  2      425
siesta:     42.86090 -41.19416 100.55993  3      426
siesta:     42.32232 -43.97394  97.71967  3      427
siesta:     46.28319 -41.98217  97.88218  2      428
siesta:     47.15435 -40.22284  98.52847  1      429
siesta:     46.79720 -43.47317  99.22578  1      430
siesta:     47.56254 -42.67570  95.37263  2      431
siesta:     46.76885 -45.02652  94.62618  3      432
siesta:     46.60633 -41.12235  93.54526  3      433
siesta:     50.46138 -42.60767  95.17231  2      434
siesta:     51.21727 -44.10056  96.42898  1      435
siesta:     50.92436 -43.14813  93.22212  1      436
siesta:     51.90891 -40.16992  95.77514  2      437
siesta:     50.30831 -38.18193  95.59561  3      438
siesta:     52.50039 -40.32488  98.27525  3      439
siesta:     54.36933 -39.48017  94.34650  2      440
siesta:     55.56742 -38.35390  95.59372  1      441
siesta:     55.33876 -41.27352  94.02903  1      442
siesta:     54.21815 -38.07989  91.80860  2      443
siesta:     52.46638 -39.34600  90.36674  3      444
siesta:     53.25250 -35.73662  92.19977  3      445
siesta:     56.57275 -37.82855  90.09840  2      446
siesta:     57.64423 -39.55765  90.25902  1      447
siesta:     55.91702 -37.73596  88.13308  1      448
siesta:     58.43036 -35.61568  90.46878  2      449
siesta:     58.20170 -34.65381  92.84795  3      450
siesta:     60.79440 -36.62102  90.46878  3      451
siesta:     58.48327 -33.37258  88.57339  2      452
siesta:     60.01584 -32.13103  89.13653  1      453
siesta:     58.98971 -34.19650  86.76681  1      454
siesta:     56.10221 -31.75308  88.10096  2      455
siesta:     54.31642 -33.23652  86.96145  3      456
siesta:     55.06853 -31.14837  90.37997  3      457
siesta:     56.25150 -29.26431  86.57028  2      458
siesta:     54.44870 -28.31945  86.72146  1      459
siesta:     57.65368 -28.04922  87.49246  1      460
siesta:     56.94503 -29.33045  83.75647  2      461
siesta:     57.39667 -26.93050  82.99680  3      462
siesta:     59.25617 -30.44917  83.58640  3      463
siesta:     55.25183 -30.62113  81.75525  2      464
siesta:     56.28929 -30.54177  79.97702  1      465
siesta:     55.12711 -32.62802  82.27871  1      466
siesta:     52.50417 -29.72351  81.27526  2      467
siesta:     50.94137 -31.58867  82.08974  3      468
siesta:     51.98261 -27.76387  82.85507  3      469
siesta:     51.64813 -28.95440  78.59563  2      470
siesta:     53.26195 -29.10746  77.33140  1      471
siesta:     50.25918 -30.33201  77.98336  1      472
siesta:     50.46327 -26.32390  78.09674  2      473
siesta:     52.12056 -24.53243  78.88098  3      474
siesta:     50.38957 -25.94784  75.54183  3      475
siesta:     47.83277 -25.60202  79.17956  2      476
siesta:     47.98394 -25.79477  81.22235  1      477
siesta:     47.54553 -23.58568  78.76004  1      478
siesta:     45.40825 -27.03065  78.38209  2      479
siesta:     45.58966 -29.43250  79.25892  3      480
siesta:     43.44482 -25.96863  79.69545  3      481
siesta:     44.68448 -27.19884  75.53994  2      482
siesta:     45.36856 -25.46596  74.62720  1      483
siesta:     45.75029 -28.75030  74.76893  1      484
siesta:     41.91036 -27.60324  74.68012  2      485
siesta:     41.86879 -27.84702  72.13087  3      486
siesta:     41.20927 -29.92005  75.48514  3      487
siesta:     39.77119 -25.74942  75.36420  2      488
siesta:     38.08933 -26.38059  74.34375  1      489
siesta:     39.39892 -26.00642  77.39943  1      490
siesta:     40.03008 -22.86947  74.91255  2      491
siesta:     42.13713 -22.42350  73.52171  3      492
siesta:     38.07989 -22.23075  73.38376  3      493
siesta:     40.01875 -21.05156  77.19912  2      494
siesta:     38.15548 -21.16494  78.03816  1      495
siesta:     41.33211 -21.78477  78.60697  1      496
siesta:     40.59133 -18.22264  76.84385  2      497
siesta:     38.95105 -17.29100  75.10531  3      498
siesta:     39.92048 -16.98864  79.00570  3      499
siesta:     43.26152 -17.27021  76.10875  2      500
siesta:     43.73962 -18.21130  74.34752  1      501
siesta:     43.10467 -15.24065  75.70057  1      502
siesta:     45.54053 -17.58013  77.90021  2      503
siesta:     45.43281 -15.62615  79.56884  3      504
siesta:     45.23061 -19.69284  79.33829  3      505
siesta:     48.27874 -17.64060  76.90621  2      506
siesta:     48.83810 -15.64505  76.86086  1      507
siesta:     49.42770 -18.64027  78.28383  1      508
siesta:     48.87968 -18.78766  74.28705  2      509
siesta:     47.49829 -20.94762  74.10186  3      510
siesta:     47.87623 -17.18707  72.53717  3      511
siesta:     51.61222 -19.44718  73.56896  2      512
siesta:     52.86511 -18.06768  74.46658  1      513
siesta:     52.04875 -21.26321  74.42122  1      514
siesta:     52.38134 -19.69095  70.77405  2      515
siesta:     53.45470 -21.97941  70.46225  3      516
siesta:     50.25918 -19.80434  69.28495  3      517
siesta:     54.21437 -17.79367  69.57785  2      518
siesta:     55.81119 -17.55934  70.86476  1      519
siesta:     54.94003 -18.69696  67.86765  1      520
siesta:     53.31297 -15.10459  68.82952  2      521
siesta:     55.15735 -14.16350  67.30262  3      522
siesta:     51.27207 -15.24821  67.25349  3      523
siesta:     52.70637 -13.12415  70.88743  2      524
siesta:     51.07176 -13.81390  71.94757  1      525
siesta:     54.31075 -13.12037  72.18190  1      526
siesta:     52.17725 -10.30468  70.27894  2      527
siesta:     50.10989  -9.64328  71.68112  3      528
siesta:     54.07642  -8.92707  71.31451  3      529
siesta:     51.72749  -9.40706  67.53317  2      530
siesta:     53.05975 -10.39917  66.31241  1      531
siesta:     49.84722  -9.99099  66.96814  1      532
siesta:     51.98450  -6.59515  66.86988  2      533
siesta:     50.47649  -6.11894  64.84220  3      534
siesta:     51.00751  -5.22509  68.84275  3      535
siesta:     54.63578  -5.55769  66.22359  2      536
siesta:     55.85655  -5.82414  67.89033  1      537
siesta:     55.39545  -6.70097  64.70425  1      538
siesta:     54.91924  -2.77979  65.38266  2      539
siesta:     54.78507  -2.71743  62.79373  3      540
siesta:     52.82920  -1.47588  66.12910  3      541
siesta:     57.32864  -1.30013  66.09509  2      542
siesta:     58.88956  -2.24500  65.17290  1      543
siesta:     57.20770   0.58959  65.27117  1      544
siesta:     58.05430  -0.96565  68.91078  2      545
siesta:     55.86600  -0.83526  70.26949  3      546
siesta:     59.21837  -3.12372  69.72525  3      547
siesta:     59.74183   1.25667  69.77250  2      548
siesta:     58.59854   2.97443  69.56652  1      549
siesta:     60.06875   1.02234  71.77939  1      550
siesta:     62.32130   1.68375  68.51205  2      551
siesta:     61.79974   2.74766  66.21414  3      552
siesta:     63.47215   3.53001  69.85186  3      553
siesta:     64.22237  -0.51212  68.21158  2      554
siesta:     64.32819  -1.45509  70.03895  1      555
siesta:     63.41168  -1.85760  66.87554  1      556
siesta:     66.96814  -0.02268  67.40845  2      557
siesta:     68.33252   0.80880  69.44179  3      558
siesta:     67.97348  -2.33381  66.93602  3      559
siesta:     67.60498   1.59115  65.05007  2      560
siesta:     69.32841   0.79558  64.28662  1      561
siesta:     66.11021   1.24155  63.64789  1      562
siesta:     68.00371   4.48621  65.20314  2      563
siesta:     66.10076   5.54446  63.82175  3      564
siesta:     67.57852   5.28179  67.62766  3      565
siesta:     70.50382   5.69942  64.27906  2      566
siesta:     71.25971   4.48054  62.78807  1      567
siesta:     69.96336   7.49655  63.45325  1      568
siesta:     72.70535   6.23232  66.14044  2      569
siesta:     74.78216   6.66696  64.68346  3      570
siesta:     72.22158   8.52078  67.22703  3      571
siesta:     73.47825   4.39928  68.27394  2      572
siesta:     74.76326   5.47454  69.46258  1      573
siesta:     71.81340   3.97599  69.40400  1      574
siesta:     74.79350   1.84248  67.62388  2      575
siesta:     73.90344   1.02801  65.33542  3      576
siesta:     77.28605   2.32625  67.14011  3      577
siesta:     74.63665  -0.35905  69.52116  2      578
siesta:     72.77905  -1.24344  69.24526  1      579
siesta:     76.07662  -1.72910  68.97692  1      580
siesta:     74.92767   0.13984  72.38221  2      581
siesta:     76.62654   2.02957  72.56173  3      582
siesta:     72.72614   1.13573  73.27038  3      583
siesta:     75.80639  -1.98421  74.19446  2      584
siesta:     77.37676  -2.92719  73.25904  1      585
siesta:     76.56228  -1.05636  75.87631  1      586
siesta:     73.98659  -4.05913  75.15633  2      587
siesta:     73.69368  -3.66418  77.67911  3      588
siesta:     71.66033  -3.64339  74.20013  3      589
siesta:     74.63476  -6.89183  74.85775  2      590
siesta:     76.51315  -7.21120  75.64388  1      591
siesta:     73.28361  -8.01622  75.97836  1      592
siesta:     74.63854  -8.07291  72.18190  2      593
siesta:     72.91700  -9.97776  72.14788  3      594
siesta:     73.65211  -6.35137  70.52461  3      595
siesta:     77.14054  -9.00077  71.00460  2      596
siesta:     76.81362  -8.92896  68.97314  1      597
siesta:     78.58429  -7.61749  71.48270  1      598
siesta:     78.26115 -11.61426  71.63766  2      599
siesta:     80.20379 -12.05646  69.99737  3      600
siesta:     79.44223 -11.35159  73.89021  3      601
siesta:     76.67756 -14.04445  71.83230  2      602
siesta:     78.01548 -15.57891  72.24048  1      603
siesta:     75.46624 -13.78934  73.45935  1      604
siesta:     75.05050 -14.94585  69.57974  2      605
siesta:     75.11853 -13.19785  67.68813  3      606
siesta:     76.22969 -17.01699  68.56496  3      607
siesta:     72.27449 -15.70930  70.06918  2      608
siesta:     72.28772 -17.67462  70.62098  1      609
siesta:     71.65466 -14.63593  71.71136  1      610
siesta:     70.21469 -15.37293  68.03584  2      611
siesta:     68.00371 -16.17984  69.07519  3      612
siesta:     69.83297 -12.87282  67.65600  3      613
siesta:     70.49437 -16.69763  65.43557  2      614
siesta:     71.79450 -15.54489  64.36410  1      615
siesta:     71.42034 -18.52310  65.71903  1      616
siesta:     68.13977 -17.13415  63.77072  2      617
siesta:     67.26105 -14.80034  63.17546  3      618
siesta:     68.93535 -18.19618  61.56541  3      619
siesta:     65.88911 -18.72908  64.76850  2      620
siesta:     66.60531 -20.01788  66.24060  1      621
siesta:     64.62299 -17.35714  65.66045  1      622
siesta:     64.24504 -20.34480  62.94491  2      623
siesta:     62.19280 -21.14226  64.24693  3      624
siesta:     63.23593 -18.76310  61.15345  3      625
siesta:     65.39400 -22.69751  61.56919  2      626
siesta:     65.51683 -22.23831  59.55663  1      627
siesta:     67.31396 -22.89971  62.27028  1      628
siesta:     64.12788 -25.32045  61.83186  2      629
siesta:     65.61699 -27.02687  60.58842  3      630
siesta:     64.33764 -26.05744  64.29418  3      631
siesta:     61.35565 -25.82501  61.02117  2      632
siesta:     61.12889 -27.88670  60.99849  1      633
siesta:     60.13867 -25.05400  62.50650  1      634
siesta:     60.31252 -24.92172  58.46815  2      635
siesta:     62.30807 -24.49275  56.88456  3      636
siesta:     59.07853 -26.92672  57.39290  3      637
siesta:     58.61744 -22.56145  58.31508  2      638
siesta:     59.09932 -21.35391  59.89111  1      639
siesta:     59.16735 -21.56556  56.59165  1      640
siesta:     55.72049 -22.79578  58.24705  2      641
siesta:     54.86444 -20.49220  57.47604  3      642
siesta:     55.05152 -24.36803  56.32331  3      643
siesta:     54.18981 -23.49497  60.65645  2      644
siesta:     52.49472 -24.52677  60.01773  1      645
siesta:     55.28585 -24.83101  61.77328  1      646
siesta:     53.32053 -21.37470  62.48193  2      647
siesta:     53.12022 -22.44618  64.82141  3      648
siesta:     55.25561 -19.70040  62.74271  3      649
siesta:     50.88846 -19.80245  62.04351  2      650
siesta:     50.81476 -18.37192  63.52128  1      651
siesta:     51.12278 -18.82357  60.22560  1      652
siesta:     48.25796 -21.03644  62.05107  2      653
siesta:     46.51185 -19.15616  61.70714  3      654
siesta:     48.01418 -22.44429  59.89678  3      655
siesta:     47.30742 -22.60491  64.34142  2      656
siesta:     48.56976 -22.21563  65.90800  1      657
siesta:     45.44604 -21.86792  64.86488  1      658
siesta:     47.10522 -25.50186  64.14489  2      659
siesta:     45.23628 -26.01776  62.45358  3      660
siesta:     49.25762 -26.38437  63.03751  3      661
siesta:     46.56476 -27.12703  66.51650  2      662
siesta:     45.04920 -26.20862  67.55207  1      663
siesta:     45.82966 -28.93550  65.82675  1      664
siesta:     48.66236 -27.72985  68.43268  2      665
siesta:     50.70893 -26.24075  67.89033  3      666
siesta:     47.83844 -26.87948  70.71358  3      667
siesta:     49.68092 -30.46051  68.74448  2      668
siesta:     49.08755 -31.54521  67.08530  1      669
siesta:     51.73127 -30.33390  68.72181  1      670
siesta:     49.02140 -32.05922  71.10097  2      671
siesta:     49.93603 -30.79310  73.16833  3      672
siesta:     46.47027 -31.96095  71.39577  3      673
siesta:     49.83210 -34.86546  71.31640  2      674
siesta:     49.74139 -35.40592  73.31951  1      675
siesta:     48.41291 -35.99930  70.29973  1      676
siesta:     52.45504 -35.64781  70.32052  2      677
siesta:     52.45315 -35.31144  67.75238  3      678
siesta:     54.17469 -33.96973  71.20302  3      679
siesta:     53.47738 -38.34256  70.76649  2      680
siesta:     52.04119 -39.62379  70.07296  1      681
siesta:     55.11955 -38.61279  69.59675  1      682
siesta:     54.18603 -39.27230  73.42156  2      683
siesta:     52.09788 -39.16081  74.92200  3      684
siesta:     54.70381 -41.79887  73.21369  3      685
siesta:     56.45748 -38.12713  74.87854  2      686
siesta:     57.73872 -39.68237  75.32073  1      687
siesta:     57.43069 -36.88180  73.56518  1      688
siesta:     56.05497 -36.61535  77.34274  2      689
siesta:     58.30941 -35.61757  77.97580  3      690
siesta:     54.58854 -34.54232  76.80039  3      691
siesta:     54.90035 -37.93060  79.69545  2      692
siesta:     53.43581 -36.67960  80.42489  1      693
siesta:     53.94792 -39.63513  79.03027  1      694
siesta:     56.59921 -38.72050  81.92722  2      695
siesta:     57.59510 -36.58322  82.97413  3      696
siesta:     55.02318 -39.60301  83.77159  3      697
siesta:     58.74594 -40.67637  81.52660  2      698
siesta:     57.84454 -42.45271  80.97291  1      699
siesta:     59.84576 -40.02442  79.94490  1      700
siesta:     60.62055 -41.32644  83.68467  2      701
siesta:     59.56608 -40.61212  85.92966  3      702
siesta:     60.73393 -43.89080  83.84718  3      703
siesta:     63.35687 -40.37213  83.63742  2      704
siesta:     64.26016 -41.14124  85.32495  1      705
siesta:     64.28662 -41.23195  81.99336  1      706
siesta:     63.96725 -37.51675  83.56939  2      707
siesta:     62.93357 -36.50763  81.43589  3      708
siesta:     62.73326 -36.35457  85.47991  3      709
siesta:     66.75082 -36.64369  83.71490  2      710
siesta:     67.68057 -37.28998  82.01415  1      711
siesta:     66.78295 -34.60090  83.64498  1      712
siesta:     68.42323 -37.45439  85.97123  2      713
siesta:     68.98637 -39.94127  85.64053  3      714
siesta:     70.71547 -36.31488  85.71045  3      715
siesta:     67.53695 -37.10668  88.73402  2      716
siesta:     65.72470 -38.06477  88.92866  1      717
siesta:     68.88810 -38.10445  89.94533  1      718
siesta:     67.21570 -34.44216  89.89998  2      719
siesta:     65.99304 -32.92660  88.20678  3      720
siesta:     65.53006 -34.68405  91.78781  3      721
siesta:     69.50604 -32.93983  90.89586  2      722
siesta:     71.20680 -33.68438  89.95289  1      723
siesta:     69.25660 -30.97451  90.31572  1      724
siesta:     70.09186 -32.83211  93.74746  2      725
siesta:     69.99737 -35.21695  94.70366  3      726
siesta:     72.56929 -32.17638  93.95722  3      727
siesta:     68.53095 -31.12569  95.50869  2      728
siesta:     68.51583 -29.24163  94.68477  1      729
siesta:     66.55618 -31.78899  95.45388  1      730
siesta:     69.23581 -30.74586  98.31871  2      731
siesta:     67.13255 -29.79343  99.43365  3      732
siesta:     69.46636 -33.07211  99.37129  3      733
siesta:     71.54884 -29.17171  99.18987  2      734
siesta:     71.96458 -29.69328 101.14385  1      735
siesta:     73.12109 -29.78210  98.01068  1      736
siesta:     71.45057 -26.27098  99.01602  2      737
siesta:     70.51516 -25.62470  96.70110  3      738
siesta:     69.69502 -25.44328 100.72055  3      739
siesta:     73.87320 -24.75920  99.45255  2      740
siesta:     74.43256 -25.12959 101.40085  1      741
siesta:     75.38121 -25.49431  98.23367  1      742
siesta:     73.94501 -21.86603  99.16153  2      743
siesta:     76.34497 -21.26699  98.40942  3      744
siesta:     72.47481 -21.20840  97.16220  3      745
siesta:     73.27605 -20.17661 101.45377  2      746
siesta:     72.61276 -18.37948 100.68843  1      747
siesta:     71.70380 -21.08179 102.38162  1      748
siesta:     75.28861 -19.60025 103.47388  2      749
siesta:     74.26249 -19.85914 105.80959  3      750
siesta:     77.01960 -21.50698 103.45310  3      751
siesta:     76.73803 -17.09447 103.33405  2      752
siesta:     78.39154 -17.27588 104.52835  1      753
siesta:     77.41833 -16.92250 101.40274  1      754
siesta:     75.39254 -14.63593 104.00868  2      755
siesta:     75.33774 -13.18840 101.87518  3      756
siesta:     72.89432 -15.11970 104.42820  3      757
siesta:     76.31095 -13.04101 106.28391  2      758
siesta:     74.83885 -11.62938 106.62595  1      759
siesta:     76.34308 -14.25232 107.93931  1      760
siesta:     78.86586 -11.66150 106.13840  2      761
siesta:     80.71779 -13.43974 106.21966  3      762
siesta:     79.06050 -10.55601 103.80648  3      763
siesta:     79.53860  -9.59036 108.09616  2      764
siesta:     79.01515 -10.30657 109.97455  1      765
siesta:     81.60786  -9.40517 108.06025  1      766
siesta:     78.53327  -6.85404 107.88073  2      767
siesta:     78.81673  -5.76745 110.18997  3      768
siesta:     80.28127  -5.62572 106.41052  3      769
siesta:     75.86120  -6.22287 106.84516  2      770
siesta:     75.88198  -4.21031 106.43131  1      771
siesta:     75.70057  -7.21687 105.03669  1      772
siesta:     73.47447  -6.68396 108.46465  2      773
siesta:     73.98659  -8.61715 110.06147  3      774
siesta:     73.23637  -4.62227 110.02368  3      775
siesta:     70.80807  -7.18852 107.35916  2      776
siesta:     70.01816  -8.85337 108.32859  1      777
siesta:     69.66478  -5.54635 107.85049  1      778
siesta:     70.39611  -7.62505 104.49245  2      779
siesta:     71.89466  -9.55068 103.73656  3      780
siesta:     68.01694  -8.55668 104.15986  3      781
siesta:     70.77594  -5.45564 102.58004  2      782
siesta:     72.26127  -4.25000 103.28680  1      783
siesta:     71.46758  -6.31169 100.82638  1      784
siesta:     68.55173  -3.71709 101.86573  2      785
siesta:     66.91901  -5.08903 100.44276  3      786
siesta:     67.25916  -3.16907 104.03513  3      787
siesta:     69.03928  -1.22076 100.41442  2      788
siesta:     69.82352  -1.72343  98.58516  1      789
siesta:     67.19113  -0.33070 100.11584  1      790
siesta:     70.78539   0.83715 101.52936  2      791
siesta:     70.33941   1.11494 104.03891  3      792
siesta:     73.17589  -0.02268 101.41597  3      793
siesta:     70.86476   3.48655 100.31993  2      794
siesta:     72.80740   4.13661 100.41820  1      795
siesta:     70.38666   3.24844  98.34139  1      796
siesta:     69.25282   5.68808 101.33282  2      797
siesta:     67.32719   4.75266 102.76524  3      798
siesta:     70.74193   6.94853 103.01657  3      799
siesta:     68.15489   7.64583  99.48656  2      800
siesta:     67.24971   9.08959 100.65441  1      801
siesta:     69.75171   8.45842  98.53225  1      802
siesta:     66.21792   6.88050  97.46266  2      803
siesta:     67.47459   6.60649  95.23468  3      804
siesta:     65.39022   4.52212  98.00124  3      805
siesta:     63.93702   8.61149  96.94866  2      806
siesta:     64.53417  10.55412  97.19432  1      807
siesta:     63.45703   8.36582  94.97767  1      808
siesta:     61.47282   8.26378  98.45855  2      809
siesta:     60.04418  10.35381  98.11651  3      810
siesta:     60.17079   6.38161  97.28692  3      811
siesta:     61.64667   7.77434 101.31015  2      812
siesta:     62.90523   6.14728 101.56148  1      813
siesta:     62.58020   9.42596 102.11139  1      814
siesta:     59.27128   7.24521 102.92208  2      815
siesta:     60.08954   6.47987 105.25779  3      816
siesta:     58.14123   9.48832 103.35294  3      817
siesta:     57.22093   5.38383 102.02635  2      818
siesta:     55.63545   5.56147 103.34160  1      819
siesta:     56.55953   6.04146 100.21411  1      820
siesta:     57.77084   2.51901 101.74101  2      821
siesta:     55.55041   1.45131 101.00968  3      822
siesta:     59.36388   2.20153  99.74734  3      823
siesta:     58.71570   0.89573 103.98033  2      824
siesta:     58.99727   2.13161 105.61117  1      825
siesta:     57.18880  -0.36094 104.48111  1      826
siesta:     61.10243  -0.77479 103.74979  2      827
siesta:     63.14333   0.75589 103.35294  3      828
siesta:     61.55218  -1.74044 106.11005  3      829
siesta:     61.30085  -2.95742 101.80904  2      830
siesta:     62.24571  -2.19964 100.13285  1      831
siesta:     62.55563  -4.36527 102.63863  1      832
siesta:     58.94058  -4.35393 100.84716  2      833
siesta:     57.19636  -4.51645 102.75201  3      834
siesta:     57.83320  -2.86294  99.08594  3      835
siesta:     59.18814  -7.05057  99.73978  2      836
siesta:     59.91190  -8.25622 101.26479  1      837
siesta:     57.26439  -7.67229  99.29192  1      838
siesta:     60.83409  -7.57780  97.38518  2      839
siesta:     61.59565  -5.33281  96.37418  3      840
siesta:     62.99216  -8.65306  98.25635  3      841
siesta:     59.83442  -9.23887  95.23090  2      842
siesta:     58.15257  -8.32614  94.51091  1      843
siesta:     61.24605  -9.21242  93.75124  1      844
siesta:     59.13900 -12.02622  95.73545  2      845
siesta:     57.49305 -12.07724  97.71967  3      846
siesta:     57.71226 -12.76888  93.72856  3      847
siesta:     61.19692 -14.07469  96.20411  2      848
siesta:     60.87755 -15.57702  94.81894  1      849
siesta:     63.01483 -13.20163  95.76002  1      850
siesta:     61.51817 -15.34269  98.80248  2      851
siesta:     61.31408 -13.52855 100.63174  3      852
siesta:     59.52451 -16.93951  99.09539  3      853
siesta:     63.91434 -16.89416  99.35428  2      854
siesta:     63.36065 -18.56279 100.42765  1      855
siesta:     64.61543 -17.59336  97.55148  1      856
siesta:     66.18012 -15.74142 100.77158  2      857
siesta:     65.36943 -15.22364 103.15074  3      858
siesta:     67.95269 -17.60659 101.03047  3      859
siesta:     67.56718 -13.33580  99.84750  2      860
siesta:     66.22737 -11.79568  99.82860  1      861
siesta:     68.95991 -12.92384 101.31393  1      862
siesta:     69.02983 -13.34714  97.31338  2      863
siesta:     71.17656 -14.72286  97.66297  3      864
siesta:     67.67679 -14.66806  95.56160  3      865
siesta:     69.85375 -10.84325  96.09639  2      866
siesta:     69.98981  -9.44297  97.60628  1      867
siesta:     71.75104 -11.16262  95.36507  1      868
siesta:     68.32308  -9.67162  93.90809  2      869
siesta:     65.83053  -9.71509  94.54304  3      870
siesta:     68.94669  -7.16584  93.86840  3      871
siesta:     68.68212 -10.66373  91.17743  2      872
siesta:     70.46603  -9.86248  90.48768  1      873
siesta:     68.93724 -12.71786  91.25869  1      874
siesta:     66.63744 -10.13649  89.15542  2      875
siesta:     67.32530 -11.41773  87.03893  3      876
siesta:     64.44914 -11.26277  89.89998  3      877
siesta:     66.08942  -7.40773  88.25969  2      878
siesta:     66.80185  -6.13783  89.70911  1      879
siesta:     67.22136  -7.07325  86.55894  1      880
siesta:     63.38711  -6.49688  87.67955  2      881
siesta:     62.06430  -6.52712  89.88864  3      882
siesta:     63.57230  -4.00055  87.10129  3      883
siesta:     61.72226  -7.74410  85.62919  2      884
siesta:     61.74683  -9.77934  86.03926  1      885
siesta:     59.79474  -7.06947  85.92966  1      886
siesta:     62.35532  -7.36427  82.81539  2      887
siesta:     64.84787  -7.82536  82.48658  3      888
siesta:     61.19125  -9.23321  81.47746  3      889
siesta:     61.76194  -4.84148  81.46235  2      890
siesta:     62.07375  -3.32781  82.79838  1      891
siesta:     63.17735  -4.64684  79.99025  1      892
siesta:     59.18814  -4.39550  80.20190  2      893
siesta:     59.11066  -5.80902  78.06462  3      894
siesta:     57.39101  -5.39706  81.74014  3      895
siesta:     58.37177  -1.67808  79.55750  2      896
siesta:     57.04141  -1.09604  81.03149  1      897
siesta:     60.04607  -0.48755  79.73325  1      898
siesta:     57.11699  -0.97699  77.00826  2      899
siesta:     57.47226   1.55902  76.72669  3      900
siesta:     58.50972  -2.03146  75.11097  3      901
siesta:     54.31075  -1.57414  76.44512  2      902
siesta:     54.02540  -1.22832  74.45524  1      903
siesta:     54.03107  -3.56402  76.77771  1      904
siesta:     52.18292  -0.17197  77.89076  2      905
siesta:     51.27963  -1.77823  79.69167  3      906
siesta:     53.25628   1.74989  79.18523  3      907
siesta:     49.85100   0.94486  76.54339  2      908
siesta:     48.40913   1.19431  77.97391  1      909
siesta:     50.41791   2.80813  75.87253  1      910
siesta:     48.62834  -0.43464  74.26249  2      911
siesta:     49.30675  -2.92341  74.44957  3      912
siesta:     46.08855  -0.45353  74.71035  3      913
siesta:     49.12534   0.44787  71.52616  2      914
siesta:     51.07554   1.10927  71.39955  1      915
siesta:     48.97416  -1.19431  70.31485  1      916
siesta:     47.46427   2.56625  70.32241  2      917
siesta:     47.57198   4.60526  71.91167  3      918
siesta:     48.70204   3.39962  68.22670  3      919
siesta:     44.65425   2.17130  69.59864  2      920
siesta:     43.65647   1.62328  71.32018  1      921
siesta:     43.92859   3.99110  69.01661  1      922
siesta:     43.90402   0.31180  67.46136  2      923
siesta:     43.68860   1.66107  65.29006  3      924
siesta:     45.88635  -1.28123  66.99082  3      925
siesta:     41.47762  -1.31525  67.65600  2      926
siesta:     39.91859   0.04724  67.85253  1      927
siesta:     41.21305  -2.32814  65.87210  1      928
siesta:     41.13368  -3.25222  69.80840  2      929
siesta:     40.95038  -1.97665  72.04773  3      930
siesta:     38.77909  -4.26700  69.53817  3      931
siesta:     42.92326  -5.52367  70.30351  2      932
siesta:     44.70905  -4.74132  70.97436  1      933
siesta:     42.09178  -6.58381  71.86064  1      934
siesta:     43.54120  -7.41340  68.18135  2      935
siesta:     41.86501  -7.06947  66.28217  3      936
siesta:     45.79942  -6.64617  67.23837  3      937
siesta:     43.72639 -10.29145  68.78606  2      938
siesta:     45.35533 -10.52011  70.03706  1      939
siesta:     42.06154 -10.77900  69.89155  1      940
siesta:     43.98906 -12.24921  66.66956  2      941
siesta:     41.91603 -12.10559  65.14078  3      942
siesta:     45.96005 -11.53867  65.15022  3      943
siesta:     44.37835 -15.06868  67.24215  2      944
siesta:     44.70716 -15.98331  65.42423  1      945
siesta:     46.12634 -15.20096  68.33441  1      946
siesta:     42.33744 -16.56535  68.67079  2      947
siesta:     43.38813 -18.84814  69.19802  3      948
siesta:     42.05020 -15.45608  70.99326  3      949
siesta:     39.68237 -17.03400  67.60876  2      950
siesta:     38.46728 -17.15872  69.26227  1      951
siesta:     39.07955 -15.36915  66.56563  1      952
siesta:     39.08900 -19.36781  65.95903  2      953
siesta:     37.18038 -18.70830  64.40189  3      954
siesta:     41.01841 -19.74765  64.32630  3      955
siesta:     38.44838 -21.92461  67.17412  2      956
siesta:     39.76363 -22.21752  68.71803  1      957
siesta:     36.54165 -21.71863  67.97348  1      958
siesta:     38.44649 -24.36236  65.58486  2      959
siesta:     40.89747 -25.11069  65.34487  3      960
siesta:     37.39014 -26.20862  67.04373  3      961
siesta:     37.19738 -24.44362  62.96759  2      962
siesta:     35.22073 -23.97874  63.23026  1      963
siesta:     37.96839 -22.90727  61.83564  1      964
siesta:     37.27108 -26.86625  61.34242  2      965
siesta:     36.37724 -28.82022  62.78429  3      966
siesta:     35.45317 -26.59791  59.52262  3      967
siesta:     39.78253 -27.69395  60.10654  2      968
siesta:     40.98629 -25.99319  60.03851  1      969
siesta:     40.66314 -29.05077  61.38967  1      970
siesta:     39.78442 -28.86558  57.43636  2      971
siesta:     37.58478 -30.16571  57.07353  3      972
siesta:     39.68615 -26.94940  55.74694  3      973
siesta:     41.94249 -30.68161  56.61811  2      974
siesta:     41.43982 -32.54488  57.27006  1      975
siesta:     41.93115 -30.75153  54.58287  1      976
siesta:     44.71094 -30.24697  57.41746  2      977
siesta:     44.85645 -30.67783  59.94025  3      978
siesta:     46.11123 -32.10646  56.36299  3      979
siesta:     46.06587 -27.69773  56.95070  2      980
siesta:     44.71850 -26.17083  57.23605  1      981
siesta:     47.53041 -27.47663  58.39445  1      982
siesta:     47.31687 -27.18939  54.33532  2      983
siesta:     46.02997 -28.50275  52.53252  3      984
siesta:     46.81042 -24.73652  53.73249  3      985
siesta:     50.20626 -27.51442  53.98950  2      986
siesta:     50.83743 -25.78910  53.05030  1      987
siesta:     51.03018 -27.53710  55.88678  1      988
siesta:     51.35144 -29.74052  52.51929  2      989
siesta:     49.73194 -31.73796  52.57787  3      990
siesta:     51.34766 -29.04888  50.02863  3      991
siesta:     54.04997 -30.69483  53.19014  2      992
siesta:     54.87200 -31.40915  51.42136  1      993
siesta:     55.17814 -29.08668  53.79674  1      994
siesta:     54.48272 -32.80377  55.19136  2      995
siesta:     54.58476 -34.99396  53.87044  3      996
siesta:     56.89023 -32.49574  56.07009  3      997
siesta:     52.75739 -33.26486  57.52896  2      998
siesta:     50.81287 -32.96818  56.91101  1      999
siesta:     52.94259 -35.24908  58.00895  1     1000
siesta:     53.10133 -31.70584  59.99127  2     1001
siesta:     54.11611 -29.40037  59.39223  3     1002
siesta:     50.72216 -31.09735  60.81897  3     1003
siesta:     54.39201 -32.85101  62.35343  2     1004
siesta:     53.00873 -32.74519  63.87088  1     1005
siesta:     54.76051 -34.84845  61.98682  1     1006
siesta:     56.88645 -31.72473  63.39656  2     1007
siesta:     58.73460 -32.07433  61.63155  3     1008
siesta:     56.60488 -29.15849  63.50238  3     1009
siesta:     57.97115 -32.52976  65.99115  2     1010
siesta:     59.39601 -31.14270  66.49571  1     1011
siesta:     56.45181 -32.32756  67.36498  1     1012
siesta:     59.13522 -35.18671  66.41823  2     1013
siesta:     59.15790 -35.60623  68.95424  3     1014
siesta:     57.48927 -36.94416  65.54896  3     1015
siesta:     61.78462 -35.87646  65.37888  2     1016
siesta:     62.25138 -37.76241  66.11021  1     1017
siesta:     61.61077 -36.02953  63.32853  1     1018
siesta:     64.09576 -34.15870  65.90800  2     1019
siesta:     63.55907 -32.67716  67.96403  3     1020
siesta:     66.01194 -35.64403  66.73193  3     1021
siesta:     65.08786 -32.38992  63.78017  2     1022
siesta:     63.47593 -31.28632  63.06963  1     1023
siesta:     66.32941 -31.00286  64.65512  1     1024
siesta:     66.42768 -33.41793  61.41612  2     1025
siesta:     66.28973 -35.97851  61.44258  3     1026
siesta:     64.92535 -32.80755  59.40356  3     1027
siesta:     69.17156 -32.67338  60.70559  2     1028
siesta:     69.79328 -33.93383  59.20136  1     1029
siesta:     69.02416 -30.75153  59.97993  1     1030
siesta:     71.36176 -32.64692  62.64823  2     1031
siesta:     70.43768 -32.91526  65.01983  3     1032
siesta:     72.74504 -34.76531  62.26272  3     1033
siesta:     73.21936 -30.43027  62.62933  2     1034
siesta:     74.81240 -31.03687  63.77639  1     1035
siesta:     73.89588 -30.22051  60.68669  1     1036
siesta:     72.39544 -27.79221  63.59498  2     1037
siesta:     73.13243 -26.09524  61.83942  3     1038
siesta:     69.82163 -27.69773  63.57419  3     1039
siesta:     73.30629 -26.89459  66.19902  2     1040
siesta:     72.66567 -28.27976  67.57663  1     1041
siesta:     75.38498 -26.91538  66.16312  1     1042
siesta:     72.56551 -24.25087  67.22892  2     1043
siesta:     74.25304 -22.53877  66.33697  3     1044
siesta:     70.35453 -23.49497  66.13477  3     1045
siesta:     72.22914 -23.82568  70.10509  2     1046
siesta:     71.12554 -22.10791  70.30162  1     1047
siesta:     71.11231 -25.37147  70.87799  1     1048
siesta:     74.56862 -23.53466  71.80017  2     1049
siesta:     76.43189 -25.04266  70.80618  3     1050
siesta:     75.47947 -21.13848  71.50160  3     1051
siesta:     74.40611 -24.10536  74.64232  2     1052
siesta:     73.96580 -26.10658  74.81807  1     1053
siesta:     76.28072 -23.83890  75.43223  1     1054
siesta:     72.58630 -22.62003  76.38465  2     1055
siesta:     70.80618 -21.50131  74.89555  3     1056
siesta:     71.24459 -24.34346  77.72069  3     1057
siesta:     73.56896 -20.64338  78.28572  2     1058
siesta:     71.95324 -20.05756  79.41766  1     1059
siesta:     74.89366 -21.59202  79.56695  1     1060
siesta:     74.77838 -18.17350  77.34841  2     1061
siesta:     76.90055 -18.74420  76.01993  3     1062
siesta:     73.20613 -17.18329  75.58341  3     1063
siesta:     75.41144 -16.00599  79.20223  2     1064
siesta:     76.56039 -14.65105  78.13076  1     1065
siesta:     73.65211 -15.10837  79.67466  1     1066
siesta:     76.83818 -16.51243  81.72124  2     1067
siesta:     75.05428 -17.21541  83.44089  3     1068
siesta:     78.30272 -18.61948  81.37920  3     1069
siesta:     78.48225 -14.42051  82.97035  2     1070
siesta:     78.99625 -15.05356  84.87141  1     1071
[...]
siesta:   1082   -0.191597   -0.340735    0.339730
siesta:   1083    0.498126    0.057930   -0.703143
siesta:   1084   -0.622374    0.344001   -0.356471
siesta:   1085   -1.063157   -0.992533    0.075448
siesta:   1086    0.290476   -0.778404    0.747628
siesta:   1087    0.942614    1.006052   -0.459332
siesta:   1088   -0.988864    0.073581   -0.060818
siesta:   1089    0.912329    0.196481    0.688986
siesta:   1090   -0.016798    0.806001   -0.606701
siesta:   1091    0.626292   -0.150278   -0.098131
siesta:   1092   -1.196635   -0.167429   -1.236574
siesta:   1093    0.248618   -0.760842    0.691268
siesta:   1094   -0.148127   -0.166253   -0.238383
siesta:   1095    0.028635   -0.379825    0.488518
siesta:   1096    0.396649    0.404006    0.602885
siesta:   1097    0.080637   -0.283432    0.598392
siesta:   1098    0.044044    0.638012    0.970014
siesta:   1099    0.111683    0.267853   -1.641268
siesta:   1100    0.043438    0.378297    0.192245
siesta:   1101   -0.176373    0.579940   -0.499541
siesta:   1102   -0.347790   -0.779371   -0.768183
siesta:   1103   -0.311015   -0.518278   -0.461001
siesta:   1104   -0.531936   -0.851077   -0.452314
siesta:   1105    1.046157    0.557702    1.493086
siesta:   1106    0.032704   -0.558962   -0.901303
siesta:   1107   -0.121058   -0.236839    1.139926
siesta:   1108    0.255417    1.071265    0.135792
siesta:   1109   -0.119590   -0.706080   -0.038190
siesta:   1110   -0.758674    1.035598    0.813368
siesta:   1111    0.608677    0.521294   -1.895286
siesta:   1112    0.272911    0.068641    0.262232
siesta:   1113    0.426962   -0.441830   -0.406389
siesta:   1114   -0.234553   -0.503961    0.282374
siesta:   1115   -0.198593    0.285837   -0.333202
siesta:   1116   -0.214288   -1.166165   -0.272689
siesta:   1117   -0.240517    0.798564    0.694247
siesta:   1118    0.315700   -0.199753    0.104849
siesta:   1119   -0.613525    0.287488    0.216498
siesta:   1120    0.249569    0.332774   -0.365145
siesta:   1121   -0.481208   -0.466180    0.508822
siesta:   1122   -0.436454    1.399824   -0.862252
siesta:   1123    1.228768   -1.173337   -0.208777
siesta:   1124    0.417219    0.878561    0.153632
siesta:   1125    0.210943   -0.235307   -0.642223
siesta:   1126   -0.037095   -0.623291    0.370496
siesta:   1127    0.058944    0.671857    0.081056
siesta:   1128   -0.386734   -0.883397   -0.960447
siesta:   1129   -0.360757    0.291715    1.895709
siesta:   1130    0.738766    0.515200   -0.301194
siesta:   1131    0.595250    0.175135   -0.488197
siesta:   1132   -0.546055   -0.144293   -0.461267
siesta:   1133    0.021187   -0.798075   -0.460499
siesta:   1134   -1.703935   -0.494168    0.344222
siesta:   1135    1.095118    0.490677    0.767219
siesta:   1136    0.208481    0.505191   -0.608837
siesta:   1137   -0.460579    0.120314    0.509819
siesta:   1138    0.618110    0.338846    0.102461
siesta:   1139   -0.293283   -0.094550    0.011725
siesta:   1140    1.782459   -0.378471   -0.704377
siesta:   1141   -1.072026   -1.094428   -0.414284
siesta:   1142   -0.400312    0.327138    0.672527
siesta:   1143   -0.426754    0.044653    0.338951
siesta:   1144    0.080992    0.583828    0.214985
siesta:   1145   -0.519873   -0.791887    0.002387
siesta:   1146    1.291543    1.310057    0.096741
siesta:   1147    0.218937   -1.421499   -0.927398
siesta:   1148   -0.315162   -0.823229    0.496594
siesta:   1149   -0.688997    0.616667    0.426879
siesta:   1150    0.118485    0.526553   -0.445136
siesta:   1151    0.261254   -0.855343    0.353477
siesta:   1152   -1.320814    1.476900   -0.171184
siesta:   1153    0.787755   -0.254340   -0.691347
siesta:   1154   -0.162446    0.102234    0.705166
siesta:   1155    0.531054   -0.413232    0.046238
siesta:   1156   -0.235740   -0.061378    0.664352
siesta:   1157   -0.067272    0.430713    0.338590
siesta:   1158    0.122301    0.549827   -1.191982
siesta:   1159    0.216243   -1.300760    0.843106
siesta:   1160   -0.156513    0.352333   -0.115389
siesta:   1161    0.083987    1.219409   -0.135813
siesta:   1162   -0.158455   -0.231155   -0.609773
siesta:   1163    0.182111    0.049125    0.276522
siesta:   1164   -0.402909   -1.345981    0.122450
siesta:   1165    0.613133    0.451006    1.121522
siesta:   1166    0.502076   -0.527609   -0.268105
siesta:   1167   -0.295295    0.720647   -0.076961
siesta:   1168   -0.419427   -0.312714   -0.564855
siesta:   1169    0.500874   -0.762052    0.067683
siesta:   1170    0.734026    0.803216    0.808468
siesta:   1171   -1.473093    0.077347   -0.664242
siesta:   1172   -0.385667   -0.062298   -0.593390
siesta:   1173    0.980975   -0.394183    0.158210
siesta:   1174   -0.344711    0.544894    1.014167
siesta:   1175   -0.320654   -0.306905   -0.332051
siesta:   1176    0.053419    0.081313   -2.111892
siesta:   1177    0.287681   -0.585928    1.028104
siesta:   1178    0.289199    0.660513   -0.430807
siesta:   1179   -0.148538   -0.142635    0.734903
siesta:   1180   -0.098953    0.509948   -0.027378
siesta:   1181    0.197987   -0.037361   -0.180333
siesta:   1182    1.061459   -0.987418   -0.475576
siesta:   1183   -1.274553    0.639966    0.471613
siesta:   1184    0.844987    1.097972    0.098136
siesta:   1185    0.671707   -0.224103   -0.348561
siesta:   1186   -0.234950   -0.479766   -0.023075
siesta:   1187   -0.008399    0.713830    0.400240
siesta:   1188   -0.480583   -0.897007   -1.533578
siesta:   1189   -0.812370    0.738564    1.560506
siesta:   1190    0.322118    0.059215   -0.212492
siesta:   1191    0.721068    0.460298    0.169544
siesta:   1192    0.251393   -0.417590   -0.811281
siesta:   1193    0.154295   -0.127676    0.629840
siesta:   1194   -0.915348   -0.496115   -0.832506
siesta:   1195    0.361744    0.599393    1.669479
siesta:   1196    0.666790    0.190591   -0.170231
siesta:   1197   -0.090095   -0.335278   -1.291008
siesta:   1198   -0.465100    0.170680    0.271896
siesta:   1199    0.152434    0.051626    0.530453
siesta:   1200    0.038571    0.217074    1.160375
siesta:   1201    1.042868   -1.175210   -0.530427
siesta:   1202   -0.021848   -0.650243   -0.105818
siesta:   1203   -0.120036   -0.348431   -1.155760
siesta:   1204   -0.546371    0.789763    0.079767
siesta:   1205    0.622359   -0.879186    0.903239
siesta:   1206   -0.418178    1.653583   -1.304081
siesta:   1207    0.111058   -0.121391    1.412274
siesta:   1208    0.152403   -0.686048   -0.708147
siesta:   1209    0.029324   -0.367821   -0.141542
siesta:   1210   -0.173818   -0.255658   -0.659260
siesta:   1211   -0.445179   -0.090868   -0.356041
siesta:   1212   -0.059402    1.539969    0.038071
siesta:   1213    0.544883   -1.154459    1.231745
siesta:   1214   -0.301291   -0.750681   -0.308960
siesta:   1215   -0.132705    1.040472   -0.840559
siesta:   1216    0.659259    0.307269    0.803672
siesta:   1217    0.197147    0.310348    0.037386
siesta:   1218   -0.282951   -1.082019    0.799665
siesta:   1219   -0.561560    0.245807   -1.073365
siesta:   1220   -0.339841    0.201269   -0.535305
siesta:   1221    0.723336    0.363735    0.910930
siesta:   1222    0.140181   -0.865341    0.173511
siesta:   1223   -0.630267   -0.752219   -0.005249
siesta:   1224   -0.683804    1.382921   -0.508546
siesta:   1225    1.378880   -0.514469    0.466015
siesta:   1226   -0.241011   -0.247293    0.094625
siesta:   1227   -0.494366    0.115217   -0.273007
siesta:   1228    0.635629    0.553735   -0.268516
siesta:   1229    1.102641    0.160502   -0.011740
siesta:   1230    0.807821   -0.268934    1.233834
siesta:   1231   -1.448891   -0.481852   -0.140695
siesta:   1232   -0.203039   -0.527565   -0.114232
siesta:   1233   -0.620465   -0.401793    0.070455
siesta:   1234   -0.122095    0.201449   -0.725256
siesta:   1235    0.526525    0.542218    0.163200
siesta:   1236   -0.005485   -0.089590   -0.619696
siesta:   1237    0.433733    0.671969    0.503297
siesta:   1238   -0.327016   -0.174919    0.375584
siesta:   1239   -0.501694   -0.164964    0.931349
siesta:   1240   -0.208151   -0.604739   -0.134786
siesta:   1241   -0.724980    0.179716   -0.135289
siesta:   1242    0.108762   -0.911738   -1.041996
siesta:   1243    1.053127    1.714015    0.059928
siesta:   1244   -0.739389   -0.106266    0.716237
siesta:   1245   -0.141803   -0.422351    0.314982
siesta:   1246    0.302082   -0.441445   -0.491143
siesta:   1247   -0.894110   -0.411922   -1.129159
siesta:   1248   -0.119663   -0.581788    1.275221
siesta:   1249    0.936434    0.405866   -0.696160
siesta:   1250   -0.060438    1.169631    0.317598
siesta:   1251   -0.117182   -0.025590    0.118329
siesta:   1252   -0.666195   -0.051791    0.579275
siesta:   1253    0.744628   -0.153313    0.597375
siesta:   1254   -0.602956   -0.391535    0.870620
siesta:   1255   -0.595729    0.746808    0.323361
siesta:   1256    0.538894   -0.547095    0.335504
siesta:   1257    0.464611    0.939154    1.092883
siesta:   1258   -0.142589   -0.368766   -0.785225
siesta:   1259   -0.226815    0.427322   -0.570816
siesta:   1260   -0.160681    0.052414   -0.686030
siesta:   1261    0.102012    0.060947   -0.682713
siesta:   1262   -0.250476   -0.395156   -0.686064
siesta:   1263    0.765185   -0.347175   -0.768050
siesta:   1264   -0.199517   -0.194108    0.458546
siesta:   1265    0.240033   -0.092513    0.292964
siesta:   1266   -0.014237    0.201338    0.273428
siesta:   1267   -0.130522   -0.784011    0.495910
siesta:   1268    0.469044    0.421009    0.543155
siesta:   1269   -0.738302    0.499911    0.538826
siesta:   1270   -0.713368   -0.327925   -0.105036
siesta:   1271    0.543124   -0.430375    0.279548
siesta:   1272   -0.162458   -0.447164   -0.148059
siesta:   1273   -0.233780    0.178909    0.073947
siesta:   1274    0.196438   -0.351694    0.193217
siesta:   1275    0.151839    0.339693    0.037662
siesta:   1276   -0.058164    0.062633   -0.020485
siesta:   1277   -0.034828   -0.208800   -0.185846
siesta:   1278   -0.174306    0.784030   -0.659796
siesta:   1279   -0.253946    0.110408   -0.301397
siesta:   1280    0.274512   -0.033812   -0.250014
siesta:   1281   -1.193455   -0.431543   -0.520606
siesta:   1282    0.930194   -0.365520   -0.454453
siesta: ----------------------------------------
siesta:    Tot    0.270066   -0.051332   -0.062507

siesta: Stress tensor (static) (eV/Ang**3):
siesta:    -0.000667    0.000883    0.002029
siesta:     0.000883    0.004042    0.001329
siesta:     0.002029    0.001329   -0.001772

siesta: Cell volume =      13041.289483 Ang**3

siesta: Pressure (static):
siesta:                Solid            Molecule  Units
siesta:          -0.00000582         -0.00028420  Ry/Bohr**3
siesta:          -0.00053446         -0.02609411  eV/Ang**3
siesta:          -0.85630201        -41.80782570  kBar
(Free)E+ p_basis*V_orbitals  =     -374630.523046
(Free)Eharris+ p_basis*V_orbitals  =     -374630.530684

Optical: Performing optical calculation: 

Optical: Polarization type       = polarized   
Optical: Minimum of energy range =   0.0001 Ry 
Optical: Maximum of energy range =   7.3498 Ry 
Optical: Gaussian broadening     =   0.0037 Ry 
Optical: Scissor operator        =   0.0000 Ry 
Optical: Number of bands         =    13386
Optical: BZ mesh dimensions      =    1   1   1

Optical: electric field direction
Optical:      0.00000     0.00000     1.00000

Optical: Checking f-sum rule  0.880127
Optical: For insulators and closed shell systems
Optical: this number should be close to 1 if an enough
Optical: number of unoccupied bands have been included

* Maximum dynamic memory allocated : Node    0 =   310 MB
* Maximum dynamic memory allocated : Node    1 =   308 MB
* Maximum dynamic memory allocated : Node    2 =   311 MB
* Maximum dynamic memory allocated : Node    3 =   309 MB
* Maximum dynamic memory allocated : Node    4 =   310 MB
* Maximum dynamic memory allocated : Node    5 =   310 MB
* Maximum dynamic memory allocated : Node    6 =   310 MB
* Maximum dynamic memory allocated : Node    7 =   307 MB
* Maximum dynamic memory allocated : Node    8 =   311 MB
* Maximum dynamic memory allocated : Node    9 =   313 MB
* Maximum dynamic memory allocated : Node   10 =   310 MB
* Maximum dynamic memory allocated : Node   11 =   308 MB
* Maximum dynamic memory allocated : Node   12 =   306 MB
* Maximum dynamic memory allocated : Node   13 =   311 MB
* Maximum dynamic memory allocated : Node   14 =   308 MB
* Maximum dynamic memory allocated : Node   15 =   308 MB
* Maximum dynamic memory allocated : Node   16 =   310 MB
* Maximum dynamic memory allocated : Node   17 =   308 MB
* Maximum dynamic memory allocated : Node   18 =   308 MB
* Maximum dynamic memory allocated : Node   19 =   310 MB
* Maximum dynamic memory allocated : Node   20 =   311 MB
* Maximum dynamic memory allocated : Node   21 =   304 MB
* Maximum dynamic memory allocated : Node   22 =   305 MB
* Maximum dynamic memory allocated : Node   23 =   308 MB
* Maximum dynamic memory allocated : Node   24 =   308 MB
* Maximum dynamic memory allocated : Node   25 =   311 MB
* Maximum dynamic memory allocated : Node   26 =   311 MB
* Maximum dynamic memory allocated : Node   27 =   313 MB
* Maximum dynamic memory allocated : Node   28 =   310 MB
* Maximum dynamic memory allocated : Node   29 =   314 MB
* Maximum dynamic memory allocated : Node   30 =   311 MB
* Maximum dynamic memory allocated : Node   31 =   310 MB
* Maximum dynamic memory allocated : Node   32 =   307 MB
* Maximum dynamic memory allocated : Node   33 =   310 MB
* Maximum dynamic memory allocated : Node   34 =   310 MB
* Maximum dynamic memory allocated : Node   35 =   310 MB
* Maximum dynamic memory allocated : Node   36 =   309 MB
* Maximum dynamic memory allocated : Node   37 =   313 MB
* Maximum dynamic memory allocated : Node   38 =   308 MB
* Maximum dynamic memory allocated : Node   39 =   311 MB
* Maximum dynamic memory allocated : Node   40 =   307 MB
* Maximum dynamic memory allocated : Node   41 =   312 MB
* Maximum dynamic memory allocated : Node   42 =   309 MB
* Maximum dynamic memory allocated : Node   43 =   307 MB
* Maximum dynamic memory allocated : Node   44 =   312 MB
* Maximum dynamic memory allocated : Node   45 =   307 MB
* Maximum dynamic memory allocated : Node   46 =   297 MB
* Maximum dynamic memory allocated : Node   47 =   296 MB
* Maximum dynamic memory allocated : Node   48 =   296 MB
* Maximum dynamic memory allocated : Node   49 =   295 MB
* Maximum dynamic memory allocated : Node   50 =   294 MB
* Maximum dynamic memory allocated : Node   51 =   296 MB
* Maximum dynamic memory allocated : Node   52 =   295 MB
* Maximum dynamic memory allocated : Node   53 =   295 MB
* Maximum dynamic memory allocated : Node   54 =   294 MB
* Maximum dynamic memory allocated : Node   55 =   295 MB
* Maximum dynamic memory allocated : Node   56 =   297 MB
* Maximum dynamic memory allocated : Node   57 =   293 MB
* Maximum dynamic memory allocated : Node   58 =   299 MB
* Maximum dynamic memory allocated : Node   59 =   292 MB
* Maximum dynamic memory allocated : Node   60 =   295 MB
* Maximum dynamic memory allocated : Node   61 =   294 MB
* Maximum dynamic memory allocated : Node   62 =   294 MB
* Maximum dynamic memory allocated : Node   63 =   296 MB

* Maximum memory occured during rdiag                         

timer: CPU execution times:
timer:  Routine       Calls   Time/call    Tot.time        %
timer:  siesta            146805304.85846805304.858   100.00
timer:  Setup             1     225.992     225.992     0.00
timer:  bands             1       0.005       0.005     0.00
timer:  writewave         1       0.007       0.007     0.00
timer:  KSV_init          1       0.002       0.002     0.00
timer:  IterMD            1  278781.821  278781.821     0.60
timer:  hsparse           1      33.974      33.974     0.00
timer:  overlap           1     120.378     120.378     0.00
timer:  IterSCF          25   11036.916  275922.903     0.59
timer:  kinefsm           2      61.736     123.471     0.00
timer:  nlefsm            2     282.601     565.201     0.00
timer:  DHSCF            26    1263.052   32839.344     0.07
timer:  DHSCF1            1      50.848      50.848     0.00
timer:  DHSCF2            1    1144.691    1144.691     0.00
timer:  REORD           158       0.114      18.065     0.00
timer:  POISON           27      34.708     937.122     0.00
timer:  DHSCF3           26    1192.401   31002.418     0.07
timer:  rhoofd           26     437.038   11362.987     0.02
timer:  cellXC           26      81.306    2113.952     0.00
timer:  vmat             26     549.547   14288.227     0.03
timer:  MolMec            2       0.162       0.323     0.00
timer:  diagon           25    8594.366  214859.146     0.46
timer:  r-eigvec         25    8368.497  209212.416     0.45
timer:  r-buildHS        25       2.074      51.860     0.00
timer:  rdiag            26    8368.458  217579.910     0.46
timer:  rdiag1           26     263.333    6846.653     0.01
timer:  rdiag2           26    1771.868   46068.562     0.10
timer:  rdiag3           26    5714.207  148569.382     0.32
timer:  rdiag4           26     584.141   15187.678     0.03
timer:  r-buildD         25     225.217    5630.422     0.01
timer:  DHSCF4            1     631.304     631.304     0.00
timer:  dfscf             1     565.806     565.806     0.00
timer:  overfsm           1       5.917       5.917     0.00
timer:  optical           146526203.57046526203.570    99.40
timer:  phirphiopt        1    1363.668    1363.668     0.00
timer:  transrate         146516172.31646516172.316    99.38
  

elaps: ELAPSED times:
elaps:  Routine       Calls   Time/call    Tot.time        %
elaps:  siesta            1   87461.071   87461.071   100.00
elaps:  Setup             1       3.676       3.676     0.00
elaps:  bands             1       0.000       0.000     0.00
elaps:  writewave         1       0.001       0.001     0.00
elaps:  KSV_init          1       0.000       0.000     0.00
elaps:  IterMD            1    4373.246    4373.246     5.00
elaps:  hsparse           1       0.533       0.533     0.00
elaps:  overlap           1       1.674       1.674     0.00
elaps:  IterSCF          25     173.082    4327.046     4.95
elaps:  kinefsm           2       0.871       1.741     0.00
elaps:  nlefsm            2       4.343       8.686     0.01
elaps:  DHSCF            26      19.738     513.180     0.59
elaps:  DHSCF1            1       0.766       0.766     0.00
elaps:  DHSCF2            1      17.943      17.943     0.02
elaps:  REORD           158       0.002       0.275     0.00
elaps:  POISON           27       0.520      14.044     0.02
elaps:  DHSCF3           26      18.631     484.414     0.55
elaps:  rhoofd           26       6.863     178.446     0.20
elaps:  cellXC           26       1.273      33.110     0.04
elaps:  vmat             26       8.579     223.045     0.26
elaps:  MolMec            2       0.002       0.005     0.00
elaps:  diagon           25     134.966    3374.158     3.86
elaps:  r-eigvec         25     131.388    3284.696     3.76
elaps:  r-buildHS        25       0.024       0.605     0.00
elaps:  rdiag            26     131.393    3416.230     3.91
elaps:  rdiag1           26       4.184     108.779     0.12
elaps:  rdiag2           26      27.911     725.675     0.83
elaps:  rdiag3           26      89.648    2330.857     2.67
elaps:  rdiag4           26       9.117     237.041     0.27
elaps:  r-buildD         25       3.569      89.232     0.10
elaps:  DHSCF4            1       9.922       9.922     0.01
elaps:  dfscf             1       8.843       8.843     0.01
elaps:  overfsm           1       0.096       0.096     0.00
elaps:  optical           1   83083.097   83083.097    94.99
elaps:  phirphiopt        1      21.321      21.321     0.02
elaps:  transrate         1   82925.014   82925.014    94.81
  
>> End of run:  17-MAR-2012   7:59:11
