Siesta Version:                                        siesta-3.2-pl-3
Architecture  : x86_64-unknown-linux-gnu--Intel
Compiler flags: mpif90 -O3 -xSSSE3 -axSSE4.2,SSE4.1 -ip
PARALLEL version
NetCDF support

* Running on   64 nodes in parallel
>> Start of run:  11-SEP-2014   3:38:36

                           ***********************       
                           *  WELCOME TO SIESTA  *       
                           ***********************       

reinit: Reading from standard input
************************** Dump of input data file ****************************
SystemName      optical
SystemLabel     optical
NumberOfAtoms   1282
NumberOfSpecies 4
MD.TypeOfRun    CG
MD.NumCGsteps   0
MD.ConstantVolume  .true.
SolutionMethod  diagon
XC.functional   GGA
XC.authors      PBE
PAO.BasisSize   DZP
DM.NumberPulay  7
DM.MixingWeight 0.1
DirectPhi       .true.
SaveMemory      .true.
MeshCutoff      500 Ry
MaxSCFiterations 200
UseSaveData     .true.
WriteMullikenPop 1
PAO.EnergyShift 0.001 Ry
WriteDM.NetCDF .false.
WriteDMHS.NetCDF .false.
OpticalCalculation      .true.
%block Optical.Mesh
 1 1 1
%endblock Optical.Mesh
Optical.PolarizationType  polarized
%block Optical.Vector
 0.0 0.0 1.0
%endblock Optical.Vector
Optical.Broaden         0.05 eV
Optical.EnergyMinimum   0.001 eV
Optical.EnergyMaximum   100.0 eV
%block ChemicalSpeciesLabel
 1   1   H
 2   6   C
 3   9   F
 4  47   Ag
%endblock ChemicalSpeciesLabel
LatticeConstant 1.0 Ang
%block LatticeParameters
  22.534   24.472   23.649   90.0 90.0 90.0
%endblock LatticeParameters
AtomicCoordinatesFormat Ang
%block AtomicCoordinatesAndAtomicSpecies < struct.coor
%endblock AtomicCoordinatesAndAtomicSpecies
************************** End of input data file *****************************

reinit: -----------------------------------------------------------------------
reinit: System Name: optical
reinit: -----------------------------------------------------------------------
reinit: System Label: optical                                                     
reinit: -----------------------------------------------------------------------

initatom: Reading input for the pseudopotentials and atomic orbitals ----------
 Species number:            1  Label: H Atomic number:           1
 Species number:            2  Label: C Atomic number:           6
 Species number:            3  Label: F Atomic number:           9
 Species number:            4  Label: Ag Atomic number:          47
Ground state valence configuration:   1s01
Reading pseudopotential information in formatted form from H.psf

Valence configuration for pseudopotential generation:
1s( 1.00) rc: 1.33
2p( 0.00) rc: 1.33
3d( 0.00) rc: 0.37
4f( 0.00) rc: 1.33
Ground state valence configuration:   2s02  2p02
Reading pseudopotential information in formatted form from C.psf

Valence configuration for pseudopotential generation:
2s( 2.00) rc: 1.56
2p( 2.00) rc: 1.56
3d( 0.00) rc: 1.56
4f( 0.00) rc: 1.56
Ground state valence configuration:   2s02  2p05
Reading pseudopotential information in formatted form from F.psf

Valence configuration for pseudopotential generation:
2s( 2.00) rc: 1.41
2p( 5.00) rc: 1.41
3d( 0.00) rc: 1.41
4f( 0.00) rc: 1.41
Ground state valence configuration:   5s01  4d10
Reading pseudopotential information in formatted form from Ag.psf

Valence configuration for pseudopotential generation:
5s( 1.00) rc: 2.52
5p( 0.00) rc: 2.72
4d(10.00) rc: 2.52
4f( 0.00) rc: 2.52
For H, standard SIESTA heuristics set lmxkb to 2
 (one more than the basis l, including polarization orbitals).
Use PS.lmax or PS.KBprojectors blocks to override.
For C, standard SIESTA heuristics set lmxkb to 3
 (one more than the basis l, including polarization orbitals).
Use PS.lmax or PS.KBprojectors blocks to override.
For F, standard SIESTA heuristics set lmxkb to 3
 (one more than the basis l, including polarization orbitals).
Use PS.lmax or PS.KBprojectors blocks to override.
For Ag, standard SIESTA heuristics set lmxkb to 3
 (one more than the basis l, including polarization orbitals).
Use PS.lmax or PS.KBprojectors blocks to override.

<basis_specs>
===============================================================================
H                    Z=   1    Mass=  1.0100        Charge= 0.17977+309
Lmxo=0 Lmxkb= 2    BasisType=split      Semic=F
L=0  Nsemic=0  Cnfigmx=1
          n=1  nzeta=2  polorb=1
            splnorm:   0.15000    
               vcte:    0.0000    
               rinn:    0.0000    
                rcs:    0.0000      0.0000    
            lambdas:   1.00000     1.00000    
-------------------------------------------------------------------------------
L=0  Nkbl=1  erefs: 0.17977+309
L=1  Nkbl=1  erefs: 0.17977+309
L=2  Nkbl=1  erefs: 0.17977+309
===============================================================================
</basis_specs>

atom: Called for H                     (Z =   1)

read_vps: Pseudopotential generation method:
read_vps: ATM 3.2.2 Troullier-Martins                       
Total valence charge:    1.00000

xc_check: Exchange-correlation functional:
xc_check: GGA Perdew, Burke & Ernzerhof 1996
V l=0 = -2*Zval/r beyond r=  1.2656
V l=1 = -2*Zval/r beyond r=  1.2498
V l=2 = -2*Zval/r beyond r=  0.3563
All V_l potentials equal beyond r=  1.2656
This should be close to max(r_c) in ps generation
All pots = -2*Zval/r beyond r=  1.2656

VLOCAL1: 99.0% of the norm of Vloc inside     27.100 Ry
VLOCAL1: 99.9% of the norm of Vloc inside     61.762 Ry
atom: Maximum radius for 4*pi*r*r*local-pseudopot. charge    1.48935
atom: Maximum radius for r*vlocal+2*Zval:    1.24984
GHOST: No ghost state for L =  0
GHOST: No ghost state for L =  1
GHOST: No ghost state for L =  2

KBgen: Kleinman-Bylander projectors: 
   l= 0   rc=  1.398961   el= -0.477209   Ekb= -2.001853   kbcos= -0.352188
   l= 1   rc=  1.470814   el=  0.001006   Ekb= -0.423408   kbcos= -0.024395
   l= 2   rc=  1.489346   el=  0.001895   Ekb= -0.481957   kbcos= -0.001574

KBgen: Total number of  Kleinman-Bylander projectors:    9
atom: -------------------------------------------------------------------------

atom: SANKEY-TYPE ORBITALS:
atom: Selected multiple-zeta basis: split     

SPLIT: Orbitals with angular momentum L= 0

SPLIT: Basis orbitals for state 1s

SPLIT: PAO cut-off radius determined from an
SPLIT: energy shift=  0.001000 Ry

   izeta = 1
                 lambda =    1.000000
                     rc =    7.026209
                 energy =   -0.476258
                kinetic =    0.873901
    potential(screened) =   -1.350160
       potential(ionic) =   -1.868508

   izeta = 2
                 rmatch =    4.103729
              splitnorm =    0.150000
                 energy =   -0.388153
                kinetic =    1.411813
    potential(screened) =   -1.799966
       potential(ionic) =   -2.346436

POLgen: Perturbative polarization orbital with L=  1

POLgen: Polarization orbital for state 1s

   izeta = 1
                     rc =    7.026209
                 energy =    0.513491
                kinetic =    1.100165
    potential(screened) =   -0.586674
       potential(ionic) =   -1.048593
atom: Total number of Sankey-type orbitals:  5

atm_pop: Valence configuration (for local Pseudopot. screening):
 1s( 1.00)                                                            
Vna: chval, zval:    1.00000   1.00000

Vna:  Cut-off radius for the neutral-atom potential:   7.026209

atom: _________________________________________________________________________

<basis_specs>
===============================================================================
C                    Z=   6    Mass=  12.010        Charge= 0.17977+309
Lmxo=1 Lmxkb= 3    BasisType=split      Semic=F
L=0  Nsemic=0  Cnfigmx=2
          n=1  nzeta=2  polorb=0
            splnorm:   0.15000    
               vcte:    0.0000    
               rinn:    0.0000    
                rcs:    0.0000      0.0000    
            lambdas:   1.00000     1.00000    
L=1  Nsemic=0  Cnfigmx=2
          n=1  nzeta=2  polorb=1
            splnorm:   0.15000    
               vcte:    0.0000    
               rinn:    0.0000    
                rcs:    0.0000      0.0000    
            lambdas:   1.00000     1.00000    
-------------------------------------------------------------------------------
L=0  Nkbl=1  erefs: 0.17977+309
L=1  Nkbl=1  erefs: 0.17977+309
L=2  Nkbl=1  erefs: 0.17977+309
L=3  Nkbl=1  erefs: 0.17977+309
===============================================================================
</basis_specs>

atom: Called for C                     (Z =   6)

read_vps: Pseudopotential generation method:
read_vps: ATM 3.2.2 Troullier-Martins                       
Total valence charge:    4.00000

xc_check: Exchange-correlation functional:
xc_check: GGA Perdew, Burke & Ernzerhof 1996
V l=0 = -2*Zval/r beyond r=  1.5227
V l=1 = -2*Zval/r beyond r=  1.5227
V l=2 = -2*Zval/r beyond r=  1.5227
V l=3 = -2*Zval/r beyond r=  1.5227
All V_l potentials equal beyond r=  1.4851
This should be close to max(r_c) in ps generation
All pots = -2*Zval/r beyond r=  1.5227

VLOCAL1: 99.0% of the norm of Vloc inside     19.682 Ry
VLOCAL1: 99.9% of the norm of Vloc inside     44.856 Ry
atom: Maximum radius for 4*pi*r*r*local-pseudopot. charge    1.79142
atom: Maximum radius for r*vlocal+2*Zval:    1.54183
GHOST: No ghost state for L =  0
GHOST: No ghost state for L =  1
GHOST: No ghost state for L =  2
GHOST: No ghost state for L =  3

KBgen: Kleinman-Bylander projectors: 
   l= 0   rc=  1.661951   el= -1.010689   Ekb=  5.289847   kbcos=  0.316429
   l= 1   rc=  1.661951   el= -0.388490   Ekb= -4.102504   kbcos= -0.351025
   l= 2   rc=  1.747182   el=  0.001971   Ekb= -1.006005   kbcos= -0.008530
   l= 3   rc=  1.791422   el=  0.003065   Ekb= -0.421399   kbcos= -0.001072

KBgen: Total number of  Kleinman-Bylander projectors:   16
atom: -------------------------------------------------------------------------

atom: SANKEY-TYPE ORBITALS:
atom: Selected multiple-zeta basis: split     

SPLIT: Orbitals with angular momentum L= 0

SPLIT: Basis orbitals for state 2s

SPLIT: PAO cut-off radius determined from an
SPLIT: energy shift=  0.001000 Ry

   izeta = 1
                 lambda =    1.000000
                     rc =    5.801806
                 energy =   -1.009895
                kinetic =    0.828418
    potential(screened) =   -1.838313
       potential(ionic) =   -5.395016

   izeta = 2
                 rmatch =    3.475094
              splitnorm =    0.150000
                 energy =   -0.868818
                kinetic =    1.308521
    potential(screened) =   -2.177339
       potential(ionic) =   -5.999546

SPLIT: Orbitals with angular momentum L= 1

SPLIT: Basis orbitals for state 2p

SPLIT: PAO cut-off radius determined from an
SPLIT: energy shift=  0.001000 Ry

   izeta = 1
                 lambda =    1.000000
                     rc =    7.449784
                 energy =   -0.387666
                kinetic =    2.318076
    potential(screened) =   -2.705742
       potential(ionic) =   -6.097636

   izeta = 2
                 rmatch =    3.792903
              splitnorm =    0.150000
                 energy =   -0.276721
                kinetic =    3.399803
    potential(screened) =   -3.676524
       potential(ionic) =   -7.455899

POLgen: Perturbative polarization orbital with L=  2

POLgen: Polarization orbital for state 2p

   izeta = 1
                     rc =    7.449784
                 energy =    0.929908
                kinetic =    1.970732
    potential(screened) =   -1.040824
       potential(ionic) =   -3.695745
atom: Total number of Sankey-type orbitals: 13

atm_pop: Valence configuration (for local Pseudopot. screening):
 2s( 2.00)                                                            
 2p( 2.00)                                                            
Vna: chval, zval:    4.00000   4.00000

Vna:  Cut-off radius for the neutral-atom potential:   7.449784

atom: _________________________________________________________________________

<basis_specs>
===============================================================================
F                    Z=   9    Mass=  19.000        Charge= 0.17977+309
Lmxo=1 Lmxkb= 3    BasisType=split      Semic=F
L=0  Nsemic=0  Cnfigmx=2
          n=1  nzeta=2  polorb=0
            splnorm:   0.15000    
               vcte:    0.0000    
               rinn:    0.0000    
                rcs:    0.0000      0.0000    
            lambdas:   1.00000     1.00000    
L=1  Nsemic=0  Cnfigmx=2
          n=1  nzeta=2  polorb=1
            splnorm:   0.15000    
               vcte:    0.0000    
               rinn:    0.0000    
                rcs:    0.0000      0.0000    
            lambdas:   1.00000     1.00000    
-------------------------------------------------------------------------------
L=0  Nkbl=1  erefs: 0.17977+309
L=1  Nkbl=1  erefs: 0.17977+309
L=2  Nkbl=1  erefs: 0.17977+309
L=3  Nkbl=1  erefs: 0.17977+309
===============================================================================
</basis_specs>

atom: Called for F                     (Z =   9)

read_vps: Pseudopotential generation method:
read_vps: ATM 3.2.2 Troullier-Martins                       
Total valence charge:    7.00000

xc_check: Exchange-correlation functional:
xc_check: GGA Perdew, Burke & Ernzerhof 1996
V l=0 = -2*Zval/r beyond r=  1.3199
V l=1 = -2*Zval/r beyond r=  1.3199
V l=2 = -2*Zval/r beyond r=  1.3199
V l=3 = -2*Zval/r beyond r=  1.3199
All V_l potentials equal beyond r=  1.3199
This should be close to max(r_c) in ps generation
All pots = -2*Zval/r beyond r=  1.3199

VLOCAL1: 99.0% of the norm of Vloc inside     24.916 Ry
VLOCAL1: 99.9% of the norm of Vloc inside     56.784 Ry
atom: Maximum radius for 4*pi*r*r*local-pseudopot. charge    1.61221
atom: Maximum radius for r*vlocal+2*Zval:    1.38760
GHOST: No ghost state for L =  0
GHOST: No ghost state for L =  1
GHOST: No ghost state for L =  2
GHOST: No ghost state for L =  3

KBgen: Kleinman-Bylander projectors: 
   l= 0   rc=  1.495695   el= -2.197581   Ekb=  5.601452   kbcos=  0.238748
   l= 1   rc=  1.458760   el= -0.816694   Ekb= -9.171639   kbcos= -0.518972
   l= 2   rc=  1.552860   el=  0.001997   Ekb= -1.845583   kbcos= -0.004774
   l= 3   rc=  1.592177   el=  0.003102   Ekb= -0.701684   kbcos= -0.000616

KBgen: Total number of  Kleinman-Bylander projectors:   16
atom: -------------------------------------------------------------------------

atom: SANKEY-TYPE ORBITALS:
atom: Selected multiple-zeta basis: split     

SPLIT: Orbitals with angular momentum L= 0

SPLIT: Basis orbitals for state 2s

SPLIT: PAO cut-off radius determined from an
SPLIT: energy shift=  0.001000 Ry

   izeta = 1
                 lambda =    1.000000
                     rc =    4.066195
                 energy =   -2.196755
                kinetic =    1.966455
    potential(screened) =   -4.163210
       potential(ionic) =  -14.868929

   izeta = 2
                 rmatch =    2.259523
              splitnorm =    0.150000
                 energy =   -1.883468
                kinetic =    3.053766
    potential(screened) =   -4.937234
       potential(ionic) =  -16.545925

SPLIT: Orbitals with angular momentum L= 1

SPLIT: Basis orbitals for state 2p

SPLIT: PAO cut-off radius determined from an
SPLIT: energy shift=  0.001000 Ry

   izeta = 1
                 lambda =    1.000000
                     rc =    5.221176
                 energy =   -0.815825
                kinetic =    5.800203
    potential(screened) =   -6.616028
       potential(ionic) =  -16.867051

   izeta = 2
                 rmatch =    2.375385
              splitnorm =    0.150000
                 energy =   -0.513701
                kinetic =    8.562067
    potential(screened) =   -9.075768
       potential(ionic) =  -20.580843

POLgen: Perturbative polarization orbital with L=  2

POLgen: Polarization orbital for state 2p

   izeta = 1
                     rc =    5.221176
                 energy =    2.534714
                kinetic =    5.071044
    potential(screened) =   -2.536330
       potential(ionic) =  -10.352162
atom: Total number of Sankey-type orbitals: 13

atm_pop: Valence configuration (for local Pseudopot. screening):
 2s( 2.00)                                                            
 2p( 5.00)                                                            
Vna: chval, zval:    7.00000   7.00000

Vna:  Cut-off radius for the neutral-atom potential:   5.221176

atom: _________________________________________________________________________

<basis_specs>
===============================================================================
Ag                   Z=  47    Mass=  107.87        Charge= 0.17977+309
Lmxo=2 Lmxkb= 3    BasisType=split      Semic=F
L=0  Nsemic=0  Cnfigmx=5
          n=1  nzeta=2  polorb=1
            splnorm:   0.15000    
               vcte:    0.0000    
               rinn:    0.0000    
                rcs:    0.0000      0.0000    
            lambdas:   1.00000     1.00000    
L=1  Nsemic=0  Cnfigmx=5
L=2  Nsemic=0  Cnfigmx=4
          n=1  nzeta=2  polorb=0
            splnorm:   0.15000    
               vcte:    0.0000    
               rinn:    0.0000    
                rcs:    0.0000      0.0000    
            lambdas:   1.00000     1.00000    
-------------------------------------------------------------------------------
L=0  Nkbl=1  erefs: 0.17977+309
L=1  Nkbl=1  erefs: 0.17977+309
L=2  Nkbl=1  erefs: 0.17977+309
L=3  Nkbl=1  erefs: 0.17977+309
===============================================================================
</basis_specs>

atom: Called for Ag                    (Z =  47)

read_vps: Pseudopotential generation method:
read_vps: ATM 3.2.2 Troullier-Martins                       
Total valence charge:   11.00000

xc_check: Exchange-correlation functional:
xc_check: GGA Perdew, Burke & Ernzerhof 1996
V l=0 = -2*Zval/r beyond r=  2.4592
V l=1 = -2*Zval/r beyond r=  2.6507
V l=2 = -2*Zval/r beyond r=  2.4592
V l=3 = -2*Zval/r beyond r=  2.4592
All V_l potentials equal beyond r=  2.6507
This should be close to max(r_c) in ps generation
All pots = -2*Zval/r beyond r=  2.6507

VLOCAL1: 99.0% of the norm of Vloc inside      6.178 Ry
VLOCAL1: 99.9% of the norm of Vloc inside     14.079 Ry
atom: Maximum radius for 4*pi*r*r*local-pseudopot. charge    3.19739
atom: Maximum radius for r*vlocal+2*Zval:    2.82168
GHOST: No ghost state for L =  0
GHOST: No ghost state for L =  1
GHOST: No ghost state for L =  2
GHOST: No ghost state for L =  3

KBgen: Kleinman-Bylander projectors: 
   l= 0   rc=  2.966357   el= -0.323666   Ekb=  3.565490   kbcos=  0.247453
   l= 1   rc=  3.003670   el= -0.054265   Ekb=  1.619308   kbcos=  0.223076
   l= 2   rc=  2.786631   el= -0.547066   Ekb= -7.840816   kbcos= -0.714112
   l= 3   rc=  3.079709   el=  0.002953   Ekb= -2.732950   kbcos= -0.012571

KBgen: Total number of  Kleinman-Bylander projectors:   16
atom: -------------------------------------------------------------------------

atom: SANKEY-TYPE ORBITALS:
atom: Selected multiple-zeta basis: split     

SPLIT: Orbitals with angular momentum L= 0

SPLIT: Basis orbitals for state 5s

SPLIT: PAO cut-off radius determined from an
SPLIT: energy shift=  0.001000 Ry

   izeta = 1
                 lambda =    1.000000
                     rc =    9.486283
                 energy =   -0.322725
                kinetic =    0.270535
    potential(screened) =   -0.593260
       potential(ionic) =   -7.743453

   izeta = 2
                 rmatch =    6.768941
              splitnorm =    0.150000
                 energy =   -0.277703
                kinetic =    0.444695
    potential(screened) =   -0.722398
       potential(ionic) =   -8.538416

SPLIT: Orbitals with angular momentum L= 2

SPLIT: Basis orbitals for state 4d

SPLIT: PAO cut-off radius determined from an
SPLIT: energy shift=  0.001000 Ry

   izeta = 1
                 lambda =    1.000000
                     rc =    5.899358
                 energy =   -0.546288
                kinetic =    5.940648
    potential(screened) =   -6.486936
       potential(ionic) =  -18.280755

   izeta = 2
                 rmatch =    2.650723
              splitnorm =    0.150000
                 energy =   -0.238526
                kinetic =    8.222011
    potential(screened) =   -8.460537
       potential(ionic) =  -21.296963

POLgen: Perturbative polarization orbital with L=  1

POLgen: Polarization orbital for state 5s

   izeta = 1
                     rc =    9.486283
                 energy =   -0.053026
                kinetic =    0.478302
    potential(screened) =   -0.531328
       potential(ionic) =   -7.012902
atom: Total number of Sankey-type orbitals: 15

atm_pop: Valence configuration (for local Pseudopot. screening):
 5s( 1.00)                                                            
 5p( 0.00)                                                            
 4d(10.00)                                                            
Vna: chval, zval:   11.00000  11.00000

Vna:  Cut-off radius for the neutral-atom potential:   9.486283

atom: _________________________________________________________________________

prinput: Basis input ----------------------------------------------------------

PAO.BasisType split     

%block ChemicalSpeciesLabel
    1    1 H                       # Species index, atomic number, species label
    2    6 C                       # Species index, atomic number, species label
    3    9 F                       # Species index, atomic number, species label
    4   47 Ag                      # Species index, atomic number, species label
%endblock ChemicalSpeciesLabel

%block PAO.Basis                 # Define Basis set
H                     1                    # Species label, number of l-shells
 n=1   0   2 P   1                   # n, l, Nzeta, Polarization, NzetaPol
   7.026      4.104   
   1.000      1.000   
C                     2                    # Species label, number of l-shells
 n=2   0   2                         # n, l, Nzeta 
   5.802      3.475   
   1.000      1.000   
 n=2   1   2 P   1                   # n, l, Nzeta, Polarization, NzetaPol
   7.450      3.793   
   1.000      1.000   
F                     2                    # Species label, number of l-shells
 n=2   0   2                         # n, l, Nzeta 
   4.066      2.260   
   1.000      1.000   
 n=2   1   2 P   1                   # n, l, Nzeta, Polarization, NzetaPol
   5.221      2.375   
   1.000      1.000   
Ag                    2                    # Species label, number of l-shells
 n=5   0   2 P   1                   # n, l, Nzeta, Polarization, NzetaPol
   9.486      6.769   
   1.000      1.000   
 n=4   2   2                         # n, l, Nzeta 
   5.899      2.651   
   1.000      1.000   
%endblock PAO.Basis

prinput: ----------------------------------------------------------------------

Dumping basis to NetCDF file H.ion.nc
Dumping basis to NetCDF file C.ion.nc
Dumping basis to NetCDF file F.ion.nc
Dumping basis to NetCDF file Ag.ion.nc
coor:   Atomic-coordinates input format  =     Cartesian coordinates
coor:                                          (in Angstroms)

siesta: WARNING: XV file not found

siesta: Atomic coordinates (Bohr) and species
siesta:     28.78432  31.10679  39.41970  2        1
siesta:     29.13770  31.80977  37.50730  1        2
siesta:     30.51909  30.29043  40.17370  1        3
siesta:     28.19284  32.68472  40.60645  1        4
siesta:     26.72074  29.06778  39.35167  2        5
siesta:     25.75698  29.10557  36.97251  3        6
siesta:     27.85646  26.79444  39.56710  3        7
siesta:     24.49653  29.16227  41.23573  2        8
siesta:     24.20362  27.21774  41.88769  1        9
siesta:     25.04266  30.28665  42.87223  1       10
siesta:     21.87737  30.12792  40.36457  2       11
siesta:     22.22130  32.42204  39.25530  3       12
siesta:     21.03833  28.61046  38.45027  3       13
siesta:     19.67773  30.44728  42.28642  2       14
siesta:     20.28055  31.87969  43.64702  1       15
siesta:     18.11870  31.27498  41.22250  1       16
siesta:     18.57979  28.22118  43.82844  2       17
siesta:     20.47708  26.52799  44.25362  3       18
siesta:     18.12815  29.18872   1.48910  3       19
siesta:     16.18362  26.75097  43.07821  2       20
siesta:     15.66017  25.52076  44.64102  1       21
siesta:     14.67562  28.11536  42.85901  1       22
siesta:     16.07969  25.10502  40.65936  2       23
siesta:     13.69107  24.11669  40.52141  3       24
siesta:     16.12126  26.71318  38.64302  3       25
siesta:     18.03933  22.99798  40.10378  2       26
siesta:     17.63493  22.26854  38.19705  1       27
siesta:     19.90071  23.85591  39.99229  1       28
siesta:     18.27366  20.70385  41.91414  2       29
siesta:     16.19118  20.70952  43.44671  3       30
siesta:     18.01099  18.55901  40.50252  3       31
siesta:     20.60369  20.36559  43.67348  2       32
siesta:     20.40716  21.75076   0.49511  1       33
siesta:     20.43362  18.50799  44.55976  1       34
siesta:     23.34758  20.52054  42.62846  2       35
siesta:     24.25087  22.83546  43.25774  3       36
siesta:     24.81211  18.88971  44.00229  3       37
siesta:     23.95040  20.08213  39.81466  2       38
siesta:     22.53499  18.77633  39.05499  1       39
siesta:     23.82001  21.87359  38.82255  1       40
siesta:     26.54688  18.98420  39.08522  2       41
siesta:     26.88892  19.61536  36.60779  3       42
siesta:     28.43094  20.26543  40.31165  3       43
siesta:     27.08546  16.13449  39.39325  2       44
siesta:     28.85424  15.94929  40.45716  1       45
siesta:     25.60580  15.30679  40.55732  1       46
siesta:     27.28010  14.43940  37.03109  2       47
siesta:     27.22718  11.97142  37.82288  3       48
siesta:     25.08234  14.76255  35.76119  3       49
siesta:     29.42305  14.63216  35.06766  2       50
siesta:     29.45328  12.83691  34.08122  1       51
siesta:     28.88259  16.10236  33.70328  1       52
siesta:     32.18394  15.15561  35.81977  2       53
siesta:     33.38958  16.01355  33.72596  3       54
siesta:     32.25008  17.17762  37.40147  3       55
siesta:     33.89414  13.04478  36.89881  2       56
siesta:     33.41982  11.34403  35.85757  1       57
siesta:     35.83111  13.51533  36.38291  1       58
siesta:     33.86391  12.39661  39.78442  2       59
siesta:     31.42616  12.14527  40.56488  3       60
siesta:     34.82011  10.03634  40.03764  3       61
siesta:     35.22451  14.11437  41.73273  2       62
siesta:     34.56688  16.07780  41.47762  1       63
siesta:     34.61035  13.49643  43.59978  1       64
siesta:     38.15359  14.29200  41.75918  2       65
siesta:     38.84145  15.83402  39.81466  3       66
siesta:     38.82444  15.55812  43.88702  3       67
siesta:     39.83733  11.91095  41.58722  2       68
siesta:     39.49718  11.06813  39.73151  1       69
siesta:     41.82155  12.50810  41.58722  1       70
siesta:     39.62379   9.83603  43.60734  2       71
siesta:     41.86312   9.93051   0.17952  3       72
siesta:     37.89847  10.53901   0.69542  3       73
siesta:     39.09656   7.05057  42.88546  2       74
siesta:     38.56555   6.99388  40.89747  1       75
siesta:     40.87668   6.01311  43.11223  1       76
siesta:     37.08967   5.52178  44.34055  2       77
siesta:     34.76153   6.45531  43.79631  3       78
siesta:     37.17471   3.17285  43.29742  3       79
siesta:     37.32589   5.11171   2.51334  2       80
siesta:     37.52620   3.08592   2.79869  1       81
siesta:     39.10979   5.98288   3.12183  1       82
siesta:     35.26230   5.96398   4.42763  2       83
siesta:     32.98140   5.27612   3.49410  3       84
siesta:     35.50419   4.43708   6.47609  3       85
siesta:     35.02420   8.69652   5.39328  2       86
siesta:     34.50830   9.87193   3.78512  1       87
siesta:     33.37636   8.71920   6.62727  1       88
siesta:     37.18038  10.02311   6.82002  2       89
siesta:     39.34978   8.66440   6.60649  3       90
siesta:     37.72840  12.18685   5.57469  3       91
siesta:     36.87613  10.77144   9.63572  2       92
siesta:     38.44460  12.07535  10.04579  1       93
siesta:     35.10924  11.82591   9.81713  1       94
siesta:     36.94227   8.73999  11.73520  2       95
siesta:     37.25597   6.46287  10.59381  3       96
siesta:     39.07388   9.06691  13.11848  3       97
siesta:     34.69350   8.49810  13.59470  2       98
siesta:     34.78987  10.12705  14.87026  1       99
siesta:     32.94550   8.62849  12.53456  1      100
siesta:     34.45350   6.14917  15.36915  2      101
siesta:     36.53409   6.06980  16.87148  3      102
siesta:     32.46551   6.64995  16.92817  3      103
siesta:     34.05099   3.48655  14.21264  2      104
siesta:     32.29165   2.77034  15.03278  1      105
siesta:     33.79021   3.71709  12.17551  1      106
siesta:     36.00686   1.35871  14.65483  2      107
siesta:     35.84812   0.66518  17.13226  3      108
siesta:     35.13947  45.52919  13.39249  3      109
siesta:     38.85656   1.64784  14.08035  2      110
siesta:     39.25719   3.64150  13.85170  1      111
siesta:     39.84300   1.00344  15.80001  1      112
siesta:     40.13591   0.27590  11.85615  2      113
siesta:      0.06992   0.77101  12.01488  3      114
siesta:     39.90347  43.99473  12.27567  3      115
siesta:     39.25908   0.89951   9.11793  2      116
siesta:     37.19549   1.00156   9.17840  1      117
siesta:     39.97150   2.77979   8.68330  1      118
siesta:     39.97339  45.46494   6.85782  2      119
siesta:     41.13557   0.75967   5.15140  3      120
siesta:     41.78375  43.76796   7.59292  3      121
siesta:     37.87391  44.09300   5.35171  2      122
siesta:     36.22795  45.36667   5.19297  1      123
siesta:     38.59200  43.81710   3.44497  1      124
siesta:     36.83834  41.52675   6.25500  2      125
siesta:     36.59645  41.61368   8.79479  3      126
siesta:     34.38547  41.35100   5.42919  3      127
siesta:     38.21217  39.02664   5.61060  2      128
siesta:     40.20583  39.44994   5.43485  1      129
siesta:     37.98351  37.77942   7.25088  1      130
siesta:     37.38636  37.47517   3.27868  2      131
siesta:     36.94416  39.08144   1.31714  3      132
siesta:     39.39136  36.11835   2.44342  3      133
siesta:     35.05443  35.71017   3.47143  2      134
siesta:     33.80532  36.48874   4.89628  1      135
siesta:     34.06233  35.75741   1.64028  1      136
siesta:     35.43238  32.91337   4.15173  2      137
siesta:     37.50352  32.74330   5.65406  3      138
siesta:     33.52564  32.26709   5.73721  3      139
siesta:     35.66482  30.90837   2.02768  2      140
siesta:     36.45283  31.84001   0.33448  1      141
siesta:     37.01975  29.49864   2.67963  1      142
siesta:     33.29321  29.47785   1.07336  2      143
siesta:     31.52253  31.25419   0.47810  3      144
siesta:     33.94327  28.41015  43.50340  3      145
siesta:     32.08000  27.45395   2.77412  2      146
siesta:     33.64848  26.35791   3.55458  1      147
siesta:     31.16538  28.44228   4.34637  1      148
siesta:     30.15626  25.55667   1.67619  2      149
siesta:     28.89959  24.47385   3.66796  3      150
siesta:     28.32134  26.93806   0.51590  3      151
siesta:     30.90837  23.35513  44.55976  2      152
siesta:     29.29833  22.08146  44.52763  1      153
siesta:     31.09546  24.13748  42.67003  1      154
siesta:     33.24974  21.67895   0.34582  2      155
siesta:     33.69761  21.67139   2.86861  3      156
siesta:     32.61858  19.25632  44.52574  3      157
siesta:     35.78765  22.19673  43.67348  2      158
siesta:     36.20906  20.52432  42.53586  1      159
siesta:     35.51364  23.75954  42.35445  1      160
siesta:     38.21406  22.83168   0.47432  2      161
siesta:     40.04331  23.31167  43.41648  3      162
siesta:     37.84556  25.09935   1.62894  3      163
siesta:     39.37057  20.99109   2.43964  2      164
siesta:     37.99485  19.48497   2.84404  1      165
siesta:     40.93904  20.09158   1.47588  1      166
siesta:     40.38346  21.99642   4.97376  2      167
siesta:     38.40681  22.91861   6.33059  3      168
siesta:     41.16581  19.93473   6.33625  3      169
siesta:     42.56988  23.93528   5.07014  2      170
siesta:      1.53257  23.01876   6.06980  1      171
siesta:      0.59526  24.27543   3.10860  1      172
siesta:     42.26563  26.59602   6.22665  2      173
siesta:      2.09193  27.47096   6.51389  3      174
siesta:     41.18282  28.10402   4.42763  3      175
siesta:     40.88991  27.09868   8.75510  2      176
siesta:     38.89625  27.29522   8.30724  1      177
siesta:     41.12046  25.40549   9.92485  1      178
siesta:     41.60990  29.41171  10.40295  2      179
siesta:     39.58033  29.86902  11.89016  3      180
siesta:      0.87116  28.64448  12.02811  3      181
siesta:     42.45271  31.93260   9.18974  2      182
siesta:      1.93130  31.81544   9.00455  1      183
siesta:     41.63824  31.99119   7.30946  1      184
siesta:     41.80643  34.51019  10.43129  2      185
siesta:     42.32988  36.29031   8.63605  3      186
siesta:     39.24963  34.65570  10.74688  3      187
siesta:      0.44409  35.30199  12.95786  2      188
siesta:     41.79131  34.67649  14.49798  1      189
siesta:      2.21476  34.24941  13.18084  1      190
siesta:      1.03746  38.10256  13.49076  2      191
siesta:     41.36234  39.31766  13.67028  3      192
siesta:      2.02579  38.21028  15.85859  3      193
siesta:      2.75522  39.70505  11.79001  2      194
siesta:      1.63461  40.22473  10.13083  1      195
siesta:      3.14640  41.43793  12.81802  1      196
siesta:      5.30824  38.63925  10.88483  2      197
siesta:      6.51767  37.71706  12.94463  3      198
siesta:      4.79424  36.56055   9.45997  3      199
siesta:      7.16773  40.29843   9.40706  2      200
siesta:      8.14472  41.47195  10.81113  1      201
siesta:      8.57558  39.02853   8.61715  1      202
siesta:      6.24366  42.08611   7.29813  2      203
siesta:      4.61471  40.79731   5.80146  3      204
siesta:      4.84526  43.96072   8.35637  3      205
siesta:      8.14283  43.48262   5.57469  2      206
siesta:      7.04112  44.51252   4.17630  1      207
siesta:      9.17273  44.80542   6.74444  1      208
siesta:     10.16106  41.99351   4.08937  2      209
siesta:     11.84103  41.09778   5.82414  3      210
siesta:      9.04801  39.91103   3.08592  3      211
siesta:     11.71253  43.30120   1.97287  2      212
siesta:     11.20608  45.29486   2.01823  1      213
siesta:     13.69674  43.17837   2.48688  1      214
siesta:     11.49143  42.47728  43.88135  2      215
siesta:      9.14250  43.04987  43.05932  3      216
siesta:     12.98242  44.04008  42.50563  3      217
siesta:     12.07724  39.74474  43.03664  2      218
siesta:     10.35192  38.63547  43.29175  1      219
siesta:     12.49298  39.86568  41.02408  1      220
siesta:     14.28822  38.18949  44.16103  2      221
siesta:     15.50143  37.02353  42.22217  3      222
siesta:     16.03433  39.81466   0.42141  3      223
siesta:     13.89138  36.16181   1.54580  2      224
siesta:     15.74520  35.79143   2.35649  1      225
siesta:     12.76511  37.02731   3.02167  1      226
siesta:     12.64983  33.60123   0.89951  2      227
siesta:     10.68074  34.02453  43.99851  3      228
siesta:     14.33736  32.29732  44.17615  3      229
siesta:     11.70686  31.84001   3.01978  2      230
siesta:     10.80546  30.24508   2.10327  1      231
siesta:     13.37360  31.12380   4.01378  1      232
siesta:      9.81335  32.78298   5.03234  2      233
siesta:     11.09459  33.96217   6.94097  3      234
siesta:      8.41873  34.68405   3.99866  3      235
siesta:      7.96331  30.87247   6.20964  2      236
siesta:      6.57814  31.97985   7.25466  1      237
siesta:      6.99010  29.96729   4.64495  1      238
siesta:      8.95920  28.70495   7.91607  2      239
siesta:      9.05746  26.57901   6.46476  3      240
siesta:     11.41584  29.16982   8.44519  3      241
siesta:      7.63639  27.91882  10.37271  2      242
siesta:      5.72776  27.25553   9.89272  1      243
siesta:      8.65306  26.28988  11.12293  1      244
siesta:      7.34159  29.79532  12.60448  2      245
siesta:      5.62950  31.61324  11.90339  3      246
siesta:      6.23610  28.51598  14.53200  3      247
siesta:      9.69430  31.14081  13.66462  2      248
siesta:     11.29868  29.87091  13.36037  1      249
siesta:      9.97965  32.85290  12.50621  1      250
siesta:      9.79445  31.93260  16.48220  2      251
siesta:      7.68363  33.30644  17.04912  3      252
siesta:      9.61493  29.81044  17.92784  3      253
siesta:     12.06969  33.41793  17.51588  2      254
siesta:     12.47598  34.89759  16.18551  1      255
siesta:     11.40639  34.38925  19.20718  1      256
siesta:     14.54523  32.04599  18.17917  2      257
siesta:     14.26177  30.99152  20.48464  3      258
siesta:     14.80979  30.08067  16.55968  3      259
siesta:     17.11337  33.43683  18.22831  2      260
siesta:     18.30578  32.40693  19.58513  1      261
siesta:     17.95996  33.24219  16.35748  1      262
siesta:     17.28533  36.27709  18.88971  2      263
siesta:     16.20252  37.57155  16.94518  3      264
siesta:     15.70930  36.70983  20.87581  3      265
siesta:     19.84780  37.49029  19.61348  2      266
siesta:     19.50009  38.69405  21.23675  1      267
siesta:     21.10636  35.95205  20.19740  1      268
siesta:     21.32179  39.10034  17.67839  2      269
siesta:     21.87926  37.61690  15.63371  3      270
siesta:     19.77221  40.91637  16.77322  3      271
siesta:     23.76332  40.46472  18.45507  2      272
siesta:     24.63637  41.11101  16.72408  1      273
siesta:     23.21340  42.14280  19.51710  1      274
siesta:     25.80422  39.05121  19.94985  2      275
siesta:     25.88359  36.62858  19.05223  3      276
siesta:     28.05489  40.08489  19.22230  3      277
siesta:     25.72863  39.05121  22.87325  2      278
siesta:     26.02721  41.01274  23.44584  1      279
siesta:     23.83135  38.52775  23.44962  1      280
siesta:     27.63348  37.48273  24.43795  2      281
siesta:     29.10746  36.14292  22.77688  3      282
siesta:     29.23407  39.12491  25.58501  3      283
siesta:     26.71129  35.61379  26.47696  2      284
siesta:     28.20984  34.22862  26.75664  1      285
siesta:     26.56389  36.68149  28.24197  1      286
siesta:     24.22063  34.08500  26.17839  2      287
siesta:     22.21941  35.61757  26.67727  3      288
siesta:     23.91071  33.54454  23.68962  3      289
siesta:     23.82568  31.59245  27.64481  2      290
siesta:     22.01154  30.83278  26.97396  1      291
siesta:     25.30533  30.29232  27.01931  1      292
siesta:     23.82001  31.51498  30.57956  2      293
siesta:     25.33935  29.52509  31.22585  3      294
siesta:     25.17683  33.53698  31.37891  3      295
siesta:     21.41250  31.29955  32.25575  2      296
siesta:     21.29344  29.32100  32.81322  1      297
siesta:     21.81123  32.39748  33.96217  1      298
siesta:     18.75743  32.14803  31.41860  2      299
siesta:     18.84814  34.65948  30.80066  3      300
siesta:     18.17728  31.00664  29.17171  3      301
siesta:     16.50110  31.65293  33.19116  2      302
siesta:     14.82302  31.54521  32.01386  1      303
siesta:     16.81668  29.79721  34.03209  1      304
siesta:     15.87371  33.46895  35.39080  2      305
siesta:     18.04122  33.93949  36.69094  3      306
siesta:     15.22742  35.76497  34.47429  3      307
siesta:     13.84792  32.70928  37.37880  2      308
siesta:     14.63782  31.10868  38.40492  1      309
siesta:     13.70430  34.30043  38.69027  1      310
siesta:     11.14750  31.94394  36.57566  2      311
siesta:     11.36104  29.95406  34.94105  3      312
siesta:     10.01933  30.90648  38.63358  3      313
siesta:      9.29746  33.87713  35.40403  2      314
siesta:     10.19697  34.59334  33.68627  1      315
siesta:      7.62883  32.83023  34.80499  1      316
siesta:      8.39417  36.20150  36.94416  2      317
siesta:      8.03701  35.54387  39.38569  3      318
siesta:     10.37838  37.86257  37.05943  3      319
siesta:      6.08492  37.78320  36.08433  2      320
siesta:      5.98665  39.35356  37.40336  1      321
siesta:      6.55168  38.57499  34.22862  1      322
siesta:      3.41852  36.63236  35.91237  2      323
siesta:      3.28624  34.59523  37.47706  3      324
siesta:      1.75745  38.32555  36.98195  3      325
siesta:      2.37161  35.78387  33.32533  2      326
siesta:      3.94953  35.79710  31.98552  1      327
siesta:      1.78390  33.80532  33.57100  1      328
siesta:      0.13795  37.13313  32.01764  2      329
siesta:     41.77619  35.42293  30.35657  3      330
siesta:     40.79542  37.33155  33.68438  3      331
siesta:      0.47054  39.63135  30.52287  2      332
siesta:      2.13539  39.44427  29.33801  1      333
siesta:     41.41903  39.77686  29.27187  1      334
siesta:      0.70487  42.18815  31.88725  2      335
siesta:      2.90829  42.13524  33.22329  3      336
siesta:      1.17352  43.90402  30.02776  3      337
siesta:     41.13368  43.27097  33.53509  2      338
siesta:     39.89969  44.34244  32.29165  1      339
siesta:     39.98851  41.70438  34.25319  1      340
siesta:     41.64958  45.05109  35.77631  2      341
siesta:      0.40062   0.81069  34.89003  3      342
siesta:     39.36868  46.04697  36.52842  3      343
siesta:      0.42519  43.99473  38.14792  2      344
siesta:     41.94249  42.40547  38.82066  1      345
siesta:      2.26200  43.29931  37.54509  1      346
siesta:      0.89573  45.72383  40.47228  2      347
siesta:      3.42607  46.09044  40.65180  3      348
siesta:     42.52641   1.79146  40.03386  3      349
siesta:     42.56610  44.93204  43.13680  2      350
siesta:     42.13146   0.43653  44.14591  1      351
siesta:     40.77842  43.92103  42.92326  1      352
siesta:      1.73477  43.42025   0.23244  2      353
siesta:      3.22576  45.14558   1.42107  3      354
siesta:      0.27401  42.41870   2.13350  3      355
siesta:      3.47143  41.26408  44.01552  2      356
siesta:      4.06858  41.74029  42.11256  1      357
siesta:      5.12872  41.31510   0.54613  1      358
siesta:      2.57192  38.48240  43.94371  2      359
siesta:      0.11527  38.48807  43.16703  3      360
siesta:      3.86638  37.40714  41.99540  3      361
siesta:      2.84971  36.72873   1.57225  2      362
siesta:      4.66763  37.22573   2.44531  1      363
siesta:      1.34926  37.19171   2.93097  1      364
siesta:      2.87616  33.81477   1.23210  2      365
siesta:      5.24210  33.18171   0.46676  3      366
siesta:      2.68530  32.80377   3.57914  3      367
siesta:      0.89951  32.47496  44.21961  2      368
siesta:     41.68737  32.41260   0.54613  1      369
siesta:      0.61983  33.60501  42.53019  1      370
siesta:      1.36627  29.74241  43.32577  2      371
siesta:      2.33570  28.36480   0.57448  3      372
siesta:     41.64391  28.73141  42.87979  3      373
siesta:      3.02167  29.24919  40.99007  2      374
siesta:      1.75367  28.98274  39.40458  1      375
siesta:      4.09693  30.95562  40.64047  1      376
siesta:      4.90951  27.01931  40.95038  2      377
siesta:      3.60749  24.88392  41.43604  3      378
siesta:      5.74855  26.70940  38.52208  3      379
siesta:      7.28679  27.08357  42.62657  2      380
siesta:      8.91573  27.07601  41.36801  1      381
siesta:      7.29813  28.89581  43.59222  1      382
siesta:      7.85182  25.02754  44.63724  2      383
siesta:     10.24421  25.51698   0.77290  3      384
siesta:      6.40050  25.51509   2.00689  3      385
siesta:      7.76867  22.16461  43.98528  2      386
siesta:      7.52489  21.99264  41.92737  1      387
siesta:      9.63005  21.45974  44.47094  1      388
siesta:      5.82603  20.34669   0.51590  2      389
siesta:      6.44586  20.07268   3.01411  3      390
siesta:      3.52434  21.44651   0.51779  3      391
siesta:      5.53690  17.66895  44.10245  2      392
siesta:      5.70509  17.88438  42.06532  1      393
siesta:      7.17529  16.57479   0.01134  1      394
siesta:      3.18041  16.05323  44.60889  2      395
siesta:      1.31714  16.78833  42.96294  3      396
siesta:      3.77756  13.65706  43.90025  3      397
siesta:      1.99555  15.82835   2.59271  2      398
siesta:      1.72154  17.76343   3.28812  1      399
siesta:      0.13417  14.94774   2.39050  1      400
siesta:      3.39962  14.36570   4.68463  2      401
siesta:      5.95075  14.59436   4.29346  3      402
siesta:      2.93475  15.66962   6.86538  3      403
siesta:      2.79491  11.55190   5.17785  2      404
siesta:      0.87494  11.47064   5.87516  1      405
siesta:      2.85916  10.56924   3.35049  1      406
siesta:      4.42574   9.98910   7.02789  2      407
siesta:      6.83136   9.86059   6.13405  3      408
siesta:      4.66763  11.31191   9.25210  3      409
siesta:      3.60182   7.29813   7.78945  2      410
siesta:      5.01345   6.61971   9.12549  1      411
siesta:      1.82548   7.48521   8.81747  1      412
siesta:      3.20309   5.20242   5.79390  2      413
siesta:      2.57570   3.11427   7.19230  3      414
siesta:      1.02801   5.82414   4.55613  3      415
siesta:      5.30635   4.33503   3.94008  2      416
siesta:      7.10159   5.00022   4.68085  1      417
siesta:      5.38005   2.27901   4.01756  1      418
siesta:      5.21754   5.06825   1.08092  2      419
siesta:      2.86105   4.58259   0.18141  3      420
siesta:      5.43296   7.60615   0.86927  3      421
siesta:      7.02223   3.82103  43.86434  2      422
siesta:      7.02223   1.79713  44.22150  1      423
siesta:      6.14917   4.06858  42.02564  1      424
siesta:      9.79067   4.66952  43.57521  2      425
siesta:     11.16073   3.35993   0.62172  3      426
siesta:     10.64861   3.67363  41.35667  3      427
siesta:     10.62782   7.44363  43.58088  2      428
siesta:     12.18685   7.55135  42.24484  1      429
siesta:      9.07069   8.55668  42.79098  1      430
siesta:     11.53300   8.82313   1.33037  2      431
siesta:     10.66940   7.48521   3.33915  3      432
siesta:     14.08791   8.55668   1.48910  3      433
siesta:     10.87916  11.63694   1.79335  2      434
siesta:      8.98187  12.00921   1.03557  1      435
siesta:     10.71286  11.86560   3.83426  1      436
siesta:     12.63471  13.77989   0.85794  2      437
siesta:     11.67662  15.96063   1.84815  3      438
siesta:     14.90239  13.48509   2.09193  3      439
siesta:     13.27155  14.23153  42.72861  2      440
siesta:     14.71152  15.68473  42.66058  1      441
siesta:     14.16161  12.50810  42.04831  1      442
siesta:     11.19474  15.00632  40.81054  2      443
siesta:      9.08959  13.58525  41.24896  3      444
siesta:     10.49743  17.42895  41.31321  3      445
siesta:     11.70686  14.79467  37.94005  2      446
siesta:     13.55879  13.94429  37.71139  1      447
siesta:     10.35381  13.44163  37.22195  1      448
siesta:     11.64072  17.17384  36.24496  2      449
siesta:     13.19596  18.92561  37.29943  3      450
siesta:     12.79534  16.49921  34.04532  3      451
siesta:      9.11604  18.50232  35.64970  2      452
siesta:      8.84014  19.94418  37.10479  1      453
siesta:      9.39005  19.48308  33.85446  1      454
siesta:      6.63294  16.94707  35.45317  2      455
siesta:      7.07325  14.80601  34.10390  3      456
siesta:      5.99988  16.11181  37.78320  3      457
siesta:      4.24622  18.17350  34.36657  2      458
siesta:      4.77912  19.01065  32.55244  1      459
siesta:      2.91585  16.66739  34.00752  1      460
siesta:      2.85160  20.23331  35.89725  2      461
siesta:      4.46920  21.14793  37.66982  3      462
siesta:      2.53412  22.24775  34.32311  3      463
siesta:      0.34015  19.66072  37.27864  2      464
siesta:      0.26456  17.61414  37.67360  1      465
siesta:      0.46487  20.61314  39.09467  1      466
siesta:     40.34378  20.43740  36.15425  2      467
siesta:     38.77342  20.86447  38.15925  3      468
siesta:     40.51385  22.76743  35.06388  3      469
siesta:     38.84334  18.73664  34.30232  2      470
siesta:     37.90225  17.29100  35.42482  1      471
siesta:     37.38069  19.92150  33.50486  1      472
siesta:     40.15481  17.40438  32.05733  2      473
siesta:     42.23540  18.79711  31.40726  3      474
siesta:     41.10345  15.17262  32.90203  3      475
siesta:     38.69405  16.81668  29.63659  2      476
siesta:     39.76363  15.35403  28.65582  1      477
siesta:     36.86857  16.00977  30.19595  1      478
siesta:     38.12524  18.90483  27.66182  2      479
siesta:     36.55866  17.84658  25.93839  3      480
siesta:     36.73629  20.71141  28.88448  3      481
siesta:     40.28898  20.21819  26.20862  2      482
siesta:     42.05776  19.26577  26.66972  1      483
siesta:     39.91292  19.92717  24.20173  1      484
siesta:     40.74629  23.08301  26.55444  2      485
siesta:     42.50374  23.75009  24.80267  3      486
siesta:     38.58066  24.26598  25.83068  3      487
siesta:     41.54565  24.17150  29.16415  2      488
siesta:     39.93749  23.92961  30.44728  1      489
siesta:      0.52534  23.03388  29.83123  1      490
siesta:     42.36579  26.94751  29.44194  2      491
siesta:      1.35493  27.60513  27.50308  3      492
siesta:     40.27386  28.36669  29.07912  3      493
siesta:      0.96943  27.87347  31.95150  2      494
siesta:     42.42248  29.52509  32.50708  1      495
siesta:      0.67085  26.41082  33.35746  1      496
siesta:      3.77001  28.69928  32.13103  2      497
siesta:      4.22165  30.58334  30.41515  3      498
siesta:      3.92118  29.89170  34.40437  3      499
siesta:      6.02823  26.81900  32.11969  2      500
siesta:      7.69686  27.92071  32.68661  1      501
siesta:      5.68241  25.43194  33.59556  1      502
siesta:      6.82758  25.36202  29.70840  2      503
siesta:      8.66251  23.66505  30.40004  3      504
siesta:      4.86227  23.86158  28.99975  3      505
siesta:      7.72331  26.75664  27.30088  2      506
siesta:      7.49466  25.41116  25.76265  1      507
siesta:      6.43641  28.31945  26.95128  1      508
siesta:     10.44641  27.81678  27.06089  2      509
siesta:     11.62182  27.82434  29.34179  3      510
siesta:     11.75977  26.06311  25.69651  3      511
siesta:     10.91884  30.39626  25.78721  2      512
siesta:     12.95030  30.54555  25.52643  1      513
siesta:     10.08547  30.34523  23.90505  1      514
siesta:      9.98532  32.79432  27.12703  2      515
siesta:      7.83670  33.49352  25.95162  3      516
siesta:      9.26533  32.17260  29.52320  3      517
siesta:     11.73520  35.13002  27.30655  2      518
siesta:     13.47186  34.47051  28.21551  1      519
siesta:     12.22653  35.64592  25.37525  1      520
siesta:     10.86971  37.52620  28.73141  2      521
siesta:      8.51700  37.15581  29.71407  3      522
siesta:     12.43062  37.73029  30.76286  3      523
siesta:     10.94341  40.12835  27.42750  2      524
siesta:     11.44608  41.45494  28.93550  1      525
siesta:     12.48732  40.12079  26.08390  1      526
siesta:      8.60393  41.25085  26.11036  2      527
siesta:      7.09214  42.32043  27.89993  3      528
siesta:      9.45430  43.23695  24.73275  3      529
siesta:      6.91073  39.64836  24.37181  2      530
siesta:      6.46476  37.90036  25.37525  1      531
siesta:      5.15329  40.71228  24.16205  1      532
siesta:      7.84804  38.90192  21.72997  2      533
siesta:     10.31413  38.17626  21.94918  3      534
siesta:      6.62349  36.74952  21.12148  3      535
siesta:      7.57214  40.73306  19.46041  2      536
siesta:      6.35515  39.78820  18.09980  1      537
siesta:      6.54979  42.37901  20.17094  1      538
siesta:      9.90595  41.68926  17.97697  2      539
siesta:     10.85270  39.69182  16.60503  3      540
siesta:      9.01211  43.31443  16.18362  3      541
siesta:     12.14150  43.01207  19.32813  2      542
siesta:     11.31379  44.33488  20.67739  1      543
siesta:     13.12415  41.53242  20.37315  1      544
siesta:     14.15405  44.43693  17.77666  2      545
siesta:     16.37448  44.16670  19.08246  3      546
siesta:     14.48098  43.17270  15.55812  3      547
siesta:     13.88193   1.01100  17.17195  2      548
siesta:     12.02811   1.21320  16.27055  1      549
siesta:     13.85170   2.03902  18.94829  1      550
siesta:     15.79812   2.42263  15.49009  2      551
siesta:     14.54145   2.94230  13.31313  3      552
siesta:     16.14205   4.75077  16.57101  3      553
siesta:     18.40783   1.32092  14.76822  2      554
siesta:     18.27555  45.54431  14.81357  1      555
siesta:     18.72530   1.86705  12.81424  1      556
siesta:     20.82857   2.12216  16.16094  2      557
siesta:     22.75042   0.80691  15.11593  3      558
siesta:     21.33880   4.57314  15.57324  3      559
siesta:     21.05912   1.76312  19.04089  2      560
siesta:     19.21285   2.31681  19.79678  1      561
siesta:     21.33691  46.02241  19.40938  1      562
siesta:     23.07923   3.26923  20.51865  2      563
siesta:     22.05311   5.55391  21.08746  3      564
siesta:     23.35891   2.09004  22.79578  3      565
siesta:     25.79099   3.69631  19.43773  2      566
siesta:     25.61903   4.45031  17.54044  1      567
siesta:     26.65838   5.17785  20.58857  1      568
siesta:     27.66182   1.45887  19.36781  2      569
siesta:     26.46562  45.50462  19.97441  3      570
siesta:     28.25709   1.17730  16.89038  3      571
siesta:     30.17516   1.64784  20.83802  2      572
siesta:     31.34868   0.06236  20.21630  1      573
siesta:     31.12947   3.39206  20.29945  1      574
siesta:     30.12603   1.59682  23.74631  2      575
siesta:     32.50708   2.17319  24.58913  3      576
siesta:     28.66905   3.59048  24.54755  3      577
siesta:     29.20006  45.43470  25.14660  2      578
siesta:     27.14593  45.41581  24.99920  1      579
siesta:     29.88225  43.76230  24.13559  1      580
siesta:     29.75942  45.11534  27.99441  2      581
siesta:     29.35502   1.11683  29.20384  3      582
siesta:     27.96229  43.50340  28.90715  3      583
siesta:     32.36157  44.11567  28.87314  2      584
siesta:     33.05321  42.82121  27.40482  1      585
siesta:     33.62958  45.73139  28.92227  1      586
siesta:     32.63180  42.75696  31.43750  2      587
siesta:     34.83334  43.57899  32.50330  3      588
siesta:     30.79121  43.70749  32.99085  3      589
siesta:     32.55244  39.83166  31.65293  2      590
siesta:     32.64314  39.33655  33.64848  1      591
siesta:     30.67972  39.26475  30.96317  1      592
siesta:     34.57066  38.20272  30.31878  2      593
siesta:     33.89792  38.01186  27.83568  3      594
siesta:     36.78353  39.50663  30.32823  3      595
siesta:     35.19238  35.54198  31.33356  2      596
siesta:     36.98384  35.00152  30.47374  1      597
siesta:     35.46450  35.75363  33.35368  1      598
siesta:     33.31400  33.35368  31.00475  2      599
siesta:     32.93983  32.36346  33.36502  3      600
siesta:     30.99908  34.27020  30.42649  3      601
siesta:     33.89225  31.08034  29.24730  2      602
siesta:     35.50230  30.03910  30.06366  1      603
siesta:     32.24441  29.85202  29.33234  1      604
siesta:     34.53665  31.51120  26.45429  2      605
siesta:     32.97573  33.33478  25.50375  3      606
siesta:     36.86668  32.59779  26.39759  3      607
siesta:     34.61791  29.30777  24.56267  2      608
siesta:     35.61946  30.02776  22.90349  1      609
siesta:     35.73285  27.83568  25.43194  1      610
siesta:     32.20284  28.04733  23.56300  2      611
siesta:     32.93605  25.78721  22.56145  3      612
siesta:     30.75342  27.45017  25.59446  3      613
siesta:     30.56633  29.37958  21.53911  2      614
siesta:     30.23752  31.30522  22.17972  1      615
siesta:     31.71340  29.46084  19.81757  1      616
siesta:     27.96607  28.30244  20.74164  2      617
siesta:     28.37047  26.08957  19.49820  3      618
siesta:     26.68672  27.70529  22.89026  3      619
siesta:     26.18595  29.88603  19.08813  2      620
siesta:     26.09524  31.79088  19.86859  1      621
siesta:     27.08546  30.05422  17.23242  1      622
siesta:     23.42127  29.01109  18.65349  2      623
siesta:     22.09280  29.60068  20.75298  3      624
siesta:     22.38193  30.49263  16.81668  3      625
siesta:     22.72019  26.25209  17.98831  2      626
siesta:     23.28332  25.09179  19.58324  1      627
siesta:     20.66416  26.21618  17.89382  1      628
siesta:     23.68584  24.98786  15.52978  2      629
siesta:     21.85847  25.32423  13.75154  3      630
siesta:     25.66627  26.35602  14.64916  3      631
siesta:     24.47385  22.19673  15.53355  2      632
siesta:     25.03132  21.72241  13.61359  1      633
siesta:     26.17272  22.09091  16.69007  1      634
siesta:     22.67105  20.08024  16.43306  2      635
siesta:     23.92394  17.87682  16.06079  3      636
siesta:     22.41783  20.25976  18.99742  3      637
siesta:     20.05945  19.71363  15.19718  2      638
siesta:     19.77410  21.36525  13.98587  1      639
siesta:     20.18795  18.02421  14.03878  1      640
siesta:     17.65383  19.34135  16.79967  2      641
siesta:     15.75465  18.76499  15.16317  3      642
siesta:     17.95807  17.18329  18.15083  3      643
siesta:     16.69007  21.37848  18.64027  2      644
siesta:     15.46175  20.42417  20.00087  1      645
siesta:     18.31334  22.10791  19.69473  1      646
siesta:     15.25199  23.71607  17.68784  2      647
siesta:     15.74898  25.57934  19.36970  3      648
siesta:     16.39527  24.48708  15.47875  3      649
siesta:     12.37960  23.73686  17.18707  2      650
siesta:     11.90339  25.69273  16.75432  1      651
siesta:     12.07913  22.62948  15.44852  1      652
siesta:     10.49743  22.73719  19.16939  2      653
siesta:     10.06091  20.22953  18.67050  3      654
siesta:     11.70686  22.65971  21.42194  3      655
siesta:      7.93685  24.08835  19.59269  2      656
siesta:      8.32992  25.88359  20.55645  1      657
siesta:      7.19986  24.54566  17.76532  1      658
siesta:      5.76934  22.78822  21.05912  2      659
siesta:      4.51078  24.69684  22.25909  3      660
siesta:      4.01567  21.94729  19.34135  3      661
siesta:      6.21342  20.75298  23.13404  2      662
siesta:      8.18063  20.85314  23.67261  1      663
siesta:      5.10793  21.31801  24.77054  1      664
siesta:      5.58225  17.92973  22.68995  2      665
siesta:      3.05947  17.67651  22.98286  3      666
siesta:      5.98288  17.38549  20.21252  3      667
siesta:      6.90884  15.83402  24.28488  2      668
siesta:      6.46287  14.06713  23.34191  1      669
siesta:      8.94219  16.13827  24.13181  1      670
siesta:      6.35326  15.51088  27.14404  2      671
siesta:      8.11260  16.81290  28.50653  3      672
siesta:      4.12527  16.65227  27.69206  3      673
siesta:      6.23232  12.83314  28.34212  2      674
siesta:      5.44052  13.05045  30.24697  1      675
siesta:      4.85093  11.77678  27.23852  1      676
siesta:      8.61149  11.15695  28.50464  2      677
siesta:      7.77245   8.74188  28.90715  3      678
siesta:      9.68296  11.15695  26.16894  3      679
siesta:     10.71286  11.63127  30.47563  2      680
siesta:     10.99821  13.68351  30.59090  1      681
siesta:     10.00043  10.97931  32.27654  1      682
siesta:     13.35659  10.46342  30.12225  2      683
siesta:     13.09770   8.05213  29.31533  3      684
siesta:     14.49609  11.70119  28.16827  3      685
siesta:     15.32380  10.45397  32.27842  2      686
siesta:     17.16817  10.10815  31.40159  1      687
siesta:     15.37104  12.39472  33.04565  1      688
siesta:     15.08002   8.63983  34.59901  2      689
siesta:     13.12982   9.41273  36.07489  3      690
siesta:     14.31468   6.36271  33.70706  3      691
siesta:     17.36470   8.11260  36.34890  2      692
siesta:     16.62015   7.32458  38.07989  1      693
siesta:     18.48909   6.64239  35.45695  1      694
siesta:     19.16750  10.31224  37.06888  2      695
siesta:     20.72652  10.72609  35.05065  3      696
siesta:     17.80123  12.45330  37.29754  3      697
siesta:     20.86447  10.14027  39.42915  2      698
siesta:     21.77721   8.30724  39.43482  1      699
siesta:     22.38004  11.52166  39.18160  1      700
siesta:     19.70229  10.62215  42.09367  2      701
siesta:     18.84814  13.04667  42.11067  3      702
siesta:     17.55178   9.21998  42.25618  3      703
siesta:     21.19329  10.23476  44.56543  2      704
siesta:     19.98764  10.95853   1.38517  1      705
siesta:     21.37659   8.20519   0.11338  1      706
siesta:     23.82190  11.45174   0.22677  2      707
siesta:     25.23541  10.89050  42.88546  3      708
siesta:     23.54411  13.98587   0.11527  3      709
siesta:     25.34313  10.81113   2.62672  2      710
siesta:     24.40015  11.76166   4.19519  1      711
siesta:     25.20140   8.78156   2.91018  1      712
siesta:     28.18528  11.47820   2.83270  2      713
siesta:     29.06400  10.30657   4.93786  3      714
siesta:     29.42872  10.28389   0.92597  3      715
siesta:     29.06967  14.29011   2.86861  2      716
siesta:     30.60602  14.46397   1.48722  1      717
siesta:     27.52765  15.44096   2.19775  1      718
siesta:     30.02020  15.52978   5.32147  2      719
siesta:     32.31622  14.48287   5.87516  3      720
siesta:     30.50019  18.01477   4.77723  3      721
siesta:     28.39882  15.57324   7.74221  2      722
siesta:     27.04010  17.12659   7.52489  1      723
siesta:     27.36325  13.76855   7.75733  1      724
siesta:     29.67627  15.83591  10.34814  2      725
siesta:     27.81867  16.16094  12.11315  3      726
siesta:     30.73452  13.56635  10.92640  3      727
siesta:     31.71718  17.88249  10.86593  2      728
siesta:     32.46740  17.54233  12.78400  1      729
siesta:     33.28754  17.54800   9.55068  1      730
siesta:     31.00853  20.72841  10.77144  2      731
siesta:     28.59724  20.95896   9.85304  3      732
siesta:     30.85735  21.55989  13.20541  3      733
siesta:     32.69416  22.62948   9.33147  2      734
siesta:     34.56310  21.77721   9.10848  1      735
siesta:     31.84190  22.81467   7.47387  1      736
siesta:     33.11368  25.32801  10.31980  2      737
siesta:     35.05254  25.25431  12.03189  3      738
siesta:     34.01319  26.72074   8.35448  3      739
siesta:     30.91215  26.82467  11.53489  2      740
siesta:     29.14904  26.08957  10.71664  1      741
siesta:     30.95184  26.40326  13.58336  1      742
siesta:     30.79499  29.72351  11.25710  2      743
siesta:     30.26020  30.21295   8.79479  3      744
siesta:     28.71629  30.53043  12.53078  3      745
siesta:     33.01542  31.44506  12.02622  2      746
siesta:     34.69728  30.75908  11.02845  1      747
siesta:     32.58834  33.33289  11.32513  1      748
siesta:     33.73918  31.72851  14.83436  2      749
siesta:     31.60379  32.19717  16.18551  3      750
siesta:     34.50263  29.40604  15.64505  3      751
siesta:     35.75930  33.67493  15.62048  2      752
siesta:     37.53376  32.65259  15.93229  1      753
siesta:     36.04654  34.93916  14.01232  1      754
siesta:     35.31711  35.37569  17.94674  2      755
siesta:     34.66704  33.86391  19.90449  3      756
siesta:     37.61312  36.33000  18.64782  3      757
siesta:     33.37069  37.54320  17.88438  2      758
siesta:     31.54521  36.72306  17.59336  1      759
siesta:     33.40659  38.35957  19.78544  1      760
siesta:     33.69950  39.82032  16.07024  2      761
siesta:     32.49952  41.87068  17.06045  3      762
siesta:     36.17504  40.47984  16.12315  3      763
siesta:     32.97006  39.66537  13.26399  2      764
siesta:     33.11557  41.58722  12.54968  1      765
siesta:     34.46484  38.62224  12.29267  1      766
siesta:     30.38492  38.66759  12.31535  2      767
siesta:     30.78176  37.83989   9.90595  3      768
siesta:     29.77454  36.53976  13.57580  3      769
siesta:     28.02843  40.38724  12.34937  2      770
siesta:     26.47318  39.17026  12.98809  1      771
siesta:     28.34779  41.85934  13.76288  1      772
siesta:     27.03065  41.74974   9.94185  2      773
siesta:     25.75509  40.01119   8.51133  3      774
siesta:     25.19573  43.38813  10.70152  3      775
siesta:     28.82022  43.15947   8.12772  2      776
siesta:     30.31500  41.85745   7.64583  1      777
siesta:     27.75820  43.51096   6.37972  1      778
siesta:     30.08067  45.67659   8.91951  2      779
siesta:     29.72729  46.02241  11.45930  3      780
siesta:     32.61858  45.33266   8.68896  3      781
siesta:     29.54777   1.92185   7.49277  2      782
siesta:     30.94617   3.27490   8.18441  1      783
siesta:     29.94650   1.59304   5.52556  1      784
siesta:     26.95317   3.21065   7.60048  2      785
siesta:     26.92672   5.15329   5.92807  3      786
siesta:     25.23730   1.53068   6.62727  3      787
siesta:     25.85146   4.15551  10.13461  2      788
siesta:     23.86347   4.62227   9.78690  1      789
siesta:     25.89115   2.54546  11.44419  1      790
siesta:     27.10813   6.41751  11.51411  2      791
siesta:     28.37236   5.44430  13.51911  3      792
siesta:     29.00164   7.38694  10.07602  3      793
siesta:     25.51320   8.62849  12.51377  2      794
siesta:     24.41527   7.91418  14.12760  1      795
siesta:     26.87948  10.01933  13.24321  1      796
siesta:     23.72552  10.11949  10.78467  2      797
siesta:     23.82379  12.54779  11.62938  3      798
siesta:     24.79700  10.20075   8.44897  3      799
siesta:     20.90794   9.41273  10.49365  2      800
siesta:     20.64905   7.59859  11.42718  1      801
siesta:     19.81946  10.77333  11.60670  1      802
siesta:     19.68340   9.25588   7.83670  2      803
siesta:     20.00087  11.53867   6.72176  3      804
siesta:     21.09124   7.66662   6.35515  3      805
siesta:     16.89794   8.48109   7.51544  2      806
siesta:     15.87371   9.21809   9.16895  1      807
siesta:     16.20819   9.40328   5.83359  1      808
siesta:     16.23653   5.64650   7.31513  2      809
siesta:     17.70485   4.41440   9.05746  3      810
siesta:     13.83469   5.38005   8.17307  3      811
siesta:     16.43306   4.19897   4.79991  2      812
siesta:     14.65105   4.49377   3.82481  1      813
siesta:     17.94674   5.09092   3.69631  1      814
siesta:     16.92817   1.34926   4.77345  2      815
siesta:     15.17829   0.20031   6.30035  3      816
siesta:     16.35748   0.56125   2.39806  3      817
siesta:     19.58702   0.28346   5.41974  2      818
siesta:     20.96274   1.34171   4.32558  1      819
siesta:     19.95363   0.69731   7.42852  1      820
siesta:     20.21819  43.71316   4.93030  2      821
siesta:     19.95363  43.30498   2.39617  3      822
siesta:     22.73719  43.37679   5.35171  3      823
siesta:     18.78011  41.56265   6.30791  2      824
siesta:     16.80912  41.70438   5.76178  1      825
siesta:     19.44718  39.78820   5.49533  1      826
siesta:     18.86703  41.18471   9.20297  2      827
siesta:     20.77377  39.51419   9.73020  3      828
siesta:     19.63993  43.36923  10.30090  3      829
siesta:     16.54645  40.21339  10.67318  2      830
siesta:     17.03022  40.23606  12.68007  1      831
siesta:     15.04978  41.57966  10.40295  1      832
siesta:     15.41639  37.58100  10.09492  2      833
siesta:     13.12415  37.40336  11.24199  3      834
siesta:     14.84758  37.53376   7.59481  3      835
siesta:     16.92250  35.15270  10.76766  2      836
siesta:     18.42673  35.75363  12.06402  1      837
siesta:     15.64316  33.92438  11.79945  1      838
siesta:     18.14327  33.56344   8.68330  2      839
siesta:     16.21764  32.34457   7.49277  3      840
siesta:     19.16183  35.14514   6.93341  3      841
siesta:     20.10102  31.50175   9.40139  2      842
siesta:     19.28655  30.47185  10.97364  1      843
siesta:     20.17661  30.20728   7.81024  1      844
siesta:     22.81845  32.20095  10.20830  2      845
siesta:     22.71074  33.65415  12.33236  3      846
siesta:     23.92205  30.03532  11.03789  3      847
siesta:     24.63637  33.48785   8.33559  2      848
siesta:     23.90882  35.39836   8.07669  1      849
siesta:     26.46940  33.62958   9.29179  1      850
siesta:     25.06534  32.33890   5.65784  2      851
siesta:     25.45840  29.80477   5.95642  3      852
siesta:     22.86003  32.48629   4.31425  3      853
siesta:     27.22152  33.34612   3.95520  2      854
siesta:     28.95440  32.91526   4.94919  1      855
siesta:     27.18372  32.20473   2.24311  1      856
siesta:     27.38025  36.14481   3.14640  2      857
siesta:     28.67850  37.39581   4.99455  3      858
siesta:     28.99597  36.31110   1.10927  3      859
siesta:     24.99542  37.75296   2.54357  2      860
siesta:     23.74631  37.65092   4.20086  1      861
siesta:     25.62092  39.70694   2.34704  1      862
siesta:     23.31734  37.13124   0.26834  2      863
siesta:     24.14504  34.95995  43.85111  3      864
siesta:     20.99865  36.54543   1.17730  3      865
siesta:     22.89215  39.09089  42.82499  2      866
siesta:     21.42950  38.31421  41.62690  1      867
siesta:     22.10414  40.77464  43.72639  1      868
siesta:     25.10691  39.89969  41.09022  2      869
siesta:     24.46629  42.16737  40.07355  3      870
siesta:     27.15726  40.42315  42.56610  3      871
siesta:     25.99886  38.16303  38.90003  2      872
siesta:     27.59946  37.08967  39.58978  1      873
siesta:     24.50031  36.83267  38.45027  1      874
siesta:     26.83223  39.36490  36.38102  2      875
siesta:     28.82589  40.95605  36.86668  3      876
siesta:     27.84702  37.49218  34.93160  3      877
siesta:     24.96707  40.80298  34.70294  2      878
siesta:     24.82912  42.73806  35.45128  1      879
siesta:     25.87414  40.95794  32.87558  1      880
siesta:     22.23264  39.80332  34.31933  2      881
siesta:     22.39704  37.35990  33.53131  3      882
siesta:     21.16494  39.66348  36.61913  3      883
siesta:     20.37126  41.13180  32.53165  2      884
siesta:     18.65349  39.99229  32.59779  1      885
siesta:     19.90827  42.97995  33.33856  1      886
siesta:     21.02132  41.57588  29.74430  2      887
siesta:     21.96807  43.95316  29.47785  3      888
siesta:     23.03766  40.08867  29.13581  3      889
siesta:     18.95774  41.16392  27.71851  2      890
siesta:     19.17317  39.22695  27.02876  1      891
siesta:     17.15305  41.25274  28.70117  1      892
siesta:     18.76310  42.91192  25.37714  2      893
siesta:     20.92117  42.67948  23.99575  3      894
siesta:     16.99242  41.82910  23.86158  3      895
siesta:     18.18673  45.74084  25.57556  2      896
siesta:     19.96496   0.49322  25.95729  1      897
siesta:     17.50832   0.09449  23.73308  1      898
siesta:     16.28567   0.44409  27.53521  2      899
siesta:     14.45263  44.92070  27.81867  3      900
siesta:     17.48942   0.52534  29.79532  3      901
siesta:     14.98364   3.02734  27.20451  2      902
siesta:     13.64572   3.18986  28.77298  1      903
siesta:     16.45196   4.44464  27.45584  1      904
siesta:     13.58147   3.70953  24.74786  2      905
siesta:     15.32568   4.71676  23.10191  3      906
siesta:     12.86526   1.49666  23.64237  3      907
siesta:     11.26466   5.48588  24.76298  2      908
siesta:     10.30846   5.25533  26.56389  1      909
siesta:     12.02811   7.38694  24.67038  1      910
siesta:      9.23698   5.29501  22.66160  2      911
siesta:      7.87638   7.48521  22.75420  3      912
siesta:     10.48231   5.34793  20.42039  3      913
siesta:      7.35293   3.08592  22.49153  2      914
siesta:      5.86949   3.72654  21.19518  1      915
siesta:      8.33747   1.50233  21.61470  1      916
siesta:      5.98288   2.05980  24.85747  2      917
siesta:      4.94353  45.99406  24.25464  3      918
siesta:      7.73276   1.50044  26.63759  3      919
siesta:      3.90040   3.63961  26.14059  2      920
siesta:      3.73221   2.94608  28.07378  1      921
siesta:      4.59582   5.56903  26.23697  1      922
siesta:      1.20754   3.77756  25.02565  2      923
siesta:      0.30425   6.15295  25.44328  3      924
siesta:      1.37005   3.59237  22.46507  3      925
siesta:     41.78942   1.83304  25.91193  2      926
siesta:     42.53775  46.19815  25.54533  1      927
siesta:     41.55131   2.09004  27.94906  1      928
siesta:     39.10223   1.88406  24.77432  2      929
siesta:     37.46195   1.85571  26.75286  3      930
siesta:     38.73751   4.19330  23.70095  3      931
siesta:     38.25941  46.17926  22.76743  2      932
siesta:     36.49630   0.63684  21.92272  1      933
siesta:     39.69182  46.15658  21.30478  1      934
siesta:     37.71139  43.38624  23.50253  2      935
siesta:     38.17248  43.04231  25.97430  3      936
siesta:     35.15081  43.05176  23.26065  3      937
siesta:     38.94727  41.21683  21.99075  2      938
siesta:     37.98351  39.51419  22.49531  1      939
siesta:     38.57688  41.56265  19.99898  1      940
siesta:     41.81399  40.69338  22.17406  2      941
siesta:      0.38739  42.05398  20.29945  3      942
siesta:      0.16630  41.66848  24.36992  3      943
siesta:      0.18708  37.93816  21.92083  2      944
siesta:     41.77997  37.12179  20.30512  1      945
siesta:      2.19775  38.02886  21.40872  1      946
siesta:     42.51885  36.02197  24.09780  2      947
siesta:      1.98043  36.28654  25.63792  3      948
siesta:     40.56866  36.77409  25.56611  3      949
siesta:     42.15414  33.20061  23.52332  2      950
siesta:     42.01430  32.26520  25.35258  1      951
siesta:     40.32866  33.01353  22.60302  1      952
siesta:      1.51745  31.70395  21.89060  2      953
siesta:      2.32625  33.23652  19.99142  3      954
siesta:      3.59993  31.33167  23.35513  3      955
siesta:      0.80691  29.12636  20.69062  2      956
siesta:      2.52845  28.41015  19.82135  1      957
siesta:      0.30803  27.80355  22.21941  1      958
siesta:     41.28864  28.95251  18.67239  2      959
siesta:     39.10979  29.78588  19.71741  3      960
siesta:     41.82344  30.73074  16.88471  3      961
siesta:     40.74629  26.46940  17.25321  2      962
siesta:     39.52175  26.90026  15.63371  1      963
siesta:     42.53586  25.79666  16.49354  1      964
siesta:     39.52742  24.21496  18.67617  2      965
siesta:     41.43604  22.74475  19.49253  3      966
siesta:     38.40870  25.05211  20.84936  3      967
siesta:     37.60556  22.48775  17.35903  2      968
siesta:     36.83078  21.27455  18.86325  1      969
siesta:     36.07300  23.70284  16.62393  1      970
siesta:     38.44082  20.76432  15.15183  2      971
siesta:     36.46795  20.59235  13.50021  3      972
siesta:     40.26441  22.01154  13.82146  3      973
siesta:     39.45561  18.07146  15.65261  2      974
siesta:     41.18093  18.27744  16.82613  1      975
siesta:     38.03642  17.03400  16.75243  1      976
siesta:     40.18882  16.37448  13.39060  2      977
siesta:     40.10756  13.95374  14.23153  3      978
siesta:     38.27831  16.44818  11.65395  3      979
siesta:      0.13795  16.66361  11.95441  2      980
siesta:      0.28535  15.02144  10.71475  1      981
siesta:     42.53964  18.31145  10.74121  1      982
siesta:      2.69853  16.86203  13.34525  2      983
siesta:      2.48499  15.55056  15.53167  3      984
siesta:      4.41440  15.50521  11.99599  3      985
siesta:      3.86638  19.45663  14.00099  2      986
siesta:      2.37728  20.55078  14.93640  1      987
siesta:      5.30635  19.10514  15.40883  1      988
siesta:      5.04368  21.19518  11.96008  2      989
siesta:      3.16718  22.51799  10.81869  3      990
siesta:      6.37027  22.99042  13.24699  3      991
siesta:      6.79735  20.20874   9.85304  2      992
siesta:      5.69375  19.00498   8.61715  1      993
siesta:      7.36427  21.85091   8.69274  1      994
siesta:      9.22187  18.76499  10.51822  2      995
siesta:     11.14561  20.46385  10.33492  3      996
siesta:      9.20297  18.08847  13.00510  3      997
siesta:      9.91918  16.40094   8.94597  2      998
siesta:      8.18063  15.45041   8.41873  1      999
siesta:     10.83569  17.11148   7.23954  1     1000
siesta:     11.65584  14.36948  10.08169  2     1001
siesta:     12.62527  13.02778   8.09181  3     1002
siesta:     13.74965  15.51088  11.04356  3     1003
siesta:     10.61838  12.44007  12.00921  2     1004
siesta:      8.78723  13.12604  12.71597  1     1005
siesta:     10.27822  10.70341  10.96797  1     1006
siesta:     12.23787  11.73520  14.33547  2     1007
siesta:     11.12482   9.72642  15.47875  3     1008
siesta:     14.48665  10.78845  13.45863  3     1009
siesta:     12.81613  13.71375  16.40472  2     1010
siesta:     14.84758  14.06335  16.39149  1     1011
siesta:     11.91662  15.47686  15.84914  1     1012
siesta:     12.05835  13.27155  19.17506  2     1013
siesta:     12.21897  15.53733  20.37692  3     1014
siesta:      9.53367  12.73676  19.21096  3     1015
siesta:     13.43407  11.24576  20.78511  2     1016
siesta:     12.64227  11.39694  22.69940  1     1017
siesta:     12.94085   9.40517  20.01410  1     1018
siesta:     16.33669  11.27978  21.13093  2     1019
siesta:     17.06612  13.68540  21.66572  3     1020
siesta:     16.82046   9.96264  23.27955  3     1021
siesta:     18.10169  10.13083  19.10514  2     1022
siesta:     18.49287   8.18630  19.67773  1     1023
siesta:     17.05290  10.05524  17.33446  1     1024
siesta:     20.71708  11.33080  18.48342  2     1025
siesta:     22.19673   9.41462  17.60281  3     1026
siesta:     20.40716  12.82558  16.39716  3     1027
siesta:     22.31767  12.81235  20.44873  2     1028
siesta:     22.02288  14.84003  20.11992  1     1029
siesta:     21.53155  12.34937  22.31389  1     1030
siesta:     25.20707  12.37015  20.61314  2     1031
siesta:     26.06689  13.89705  22.50287  3     1032
siesta:     25.56234   9.99477  21.49942  3     1033
siesta:     26.96262  12.69519  18.29256  2     1034
siesta:     27.55600  10.79034  17.71241  1     1035
siesta:     25.85335  13.52855  16.77322  1     1036
siesta:     29.42494  14.30145  18.53633  2     1037
siesta:     30.70239  13.55123  20.63960  3     1038
siesta:     30.91593  13.55123  16.59936  3     1039
siesta:     29.30210  17.21163  18.45507  2     1040
siesta:     28.88259  17.72942  16.50110  1     1041
siesta:     27.67505  17.77855  19.61159  1     1042
siesta:     31.60379  18.81790  19.28088  2     1043
siesta:     33.64092  17.78800  18.13193  3     1044
siesta:     31.35813  21.14793  18.21130  3     1045
siesta:     32.25953  19.28277  22.06256  2     1046
siesta:     33.23652  17.61225  22.71641  1     1047
siesta:     33.60501  20.86447  22.15138  1     1048
siesta:     30.13547  19.77599  23.95418  2     1049
siesta:     28.31000  21.09880  22.70507  3     1050
siesta:     29.13392  17.49698  24.52677  3     1051
siesta:     30.63625  21.20463  26.45051  2     1052
siesta:     32.48063  22.10603  26.28610  1     1053
siesta:     29.20195  22.69562  26.54877  1     1054
siesta:     30.57389  19.81190  29.03187  2     1055
siesta:     28.25709  18.69885  29.34179  3     1056
siesta:     32.19906  17.81257  28.90715  3     1057
siesta:     31.10301  21.23108  31.55655  2     1058
siesta:     29.68950  20.56401  32.91148  1     1059
siesta:     32.93983  20.57535  32.20095  1     1060
siesta:     31.15215  24.14315  31.79088  2     1061
siesta:     33.17227  25.04455  30.46996  3     1062
siesta:     29.13581  25.12014  30.55121  3     1063
siesta:     31.16727  25.39604  34.43271  2     1064
siesta:     30.61547  27.37836  34.18894  1     1065
siesta:     29.68572  24.49086  35.52687  1     1066
siesta:     33.56722  25.34124  36.10701  2     1067
siesta:     32.83778  25.98374  38.48240  3     1068
siesta:     34.33067  22.87136  36.34512  3     1069
[...]
siesta:   1083    0.585060    0.301399    0.833219
siesta:   1084    0.356608    0.089395   -0.136950
siesta:   1085    1.500183    0.873143   -0.522470
siesta:   1086   -1.018049   -0.506382   -1.707760
siesta:   1087   -0.674343   -1.475898    1.671595
siesta:   1088    0.907824    1.013055    0.424412
siesta:   1089   -1.332695   -0.036810   -0.435463
siesta:   1090    0.144077    0.058775    0.846315
siesta:   1091   -0.920127   -0.695702    0.774366
siesta:   1092    1.987121    0.043513    0.891222
siesta:   1093   -0.157742    0.211062   -1.620021
siesta:   1094   -1.137401   -0.336615    0.466971
siesta:   1095    0.580503    0.717841   -0.467849
siesta:   1096   -0.396264    0.087054   -0.238794
siesta:   1097   -0.672158   -0.319749   -0.862227
siesta:   1098   -0.650583   -1.004737    0.451945
siesta:   1099    1.415167    0.298402    0.655209
siesta:   1100   -0.511928    0.549570   -0.800150
siesta:   1101    0.338957    0.257083    0.888222
siesta:   1102    0.451488    0.563813   -0.359424
siesta:   1103    0.226115    0.028957   -0.090778
siesta:   1104   -0.567622   -0.826205   -1.630346
siesta:   1105   -0.502415   -0.693553    1.521027
siesta:   1106    0.438065   -0.498877   -0.658530
siesta:   1107    0.199231    0.657267    0.685767
siesta:   1108    0.254173    0.235345   -0.516138
siesta:   1109   -0.365592   -1.233494   -0.234206
siesta:   1110   -0.496574    0.237893    1.535739
siesta:   1111    0.012508    1.433923   -0.847922
siesta:   1112    0.165271   -0.578392   -0.285648
siesta:   1113    0.285394   -0.376096   -0.630812
siesta:   1114    0.048086   -0.681072    0.615203
siesta:   1115    0.566062   -0.170466   -0.062814
siesta:   1116   -0.733657    0.862015    1.628489
siesta:   1117    0.176454    1.135392   -1.882978
siesta:   1118    0.563843   -0.105173   -0.207009
siesta:   1119   -0.009757   -0.644361    0.500012
siesta:   1120   -0.700271    0.211428    0.360282
siesta:   1121   -0.351524    0.352161   -0.404305
siesta:   1122    1.486530   -0.074292   -0.563629
siesta:   1123   -0.698712   -1.150954    0.336405
siesta:   1124   -0.071441    0.169936    0.507078
siesta:   1125   -0.364392    0.653986    0.173451
siesta:   1126    0.028992    0.103239   -0.116529
siesta:   1127   -0.404454   -0.601260    0.627759
siesta:   1128   -0.378656    1.696682   -0.882537
siesta:   1129    0.646872   -1.415380   -0.500996
siesta:   1130    0.287285    0.767036    0.163837
siesta:   1131   -0.027522   -0.634911    0.430279
siesta:   1132   -0.108295    0.413894    0.656686
siesta:   1133    0.660486    1.148191   -0.983689
siesta:   1134    0.299829   -1.200910   -1.002516
siesta:   1135   -1.089294    0.019729    1.544925
siesta:   1136    1.168753   -0.055670    0.388287
siesta:   1137    0.103130    0.095524   -0.080909
siesta:   1138   -0.744481   -0.471395   -0.089125
siesta:   1139    0.493759    0.258019    0.777831
siesta:   1140    1.047561    0.760128   -0.934911
siesta:   1141   -1.917749   -0.006697   -0.484005
siesta:   1142   -0.353165   -0.859881    0.159703
siesta:   1143   -0.152635   -0.549699    0.762754
siesta:   1144    0.549933    0.241040    0.199845
siesta:   1145   -0.660046    0.088232   -0.664444
siesta:   1146    0.718271    0.208474    1.273306
siesta:   1147    0.201052    0.968516   -1.172968
siesta:   1148    0.239072    0.127930   -0.732636
siesta:   1149   -0.385150   -0.664949   -0.553277
siesta:   1150   -0.307553   -0.400287    0.688140
siesta:   1151    0.910996   -0.281329   -0.812288
siesta:   1152   -1.629143   -0.910192    0.320909
siesta:   1153    0.751087    1.186531    0.956647
siesta:   1154   -0.114194   -0.884803   -0.501948
siesta:   1155   -0.613706    0.517512    0.378441
siesta:   1156    0.690965    0.287906   -0.260914
siesta:   1157   -0.506666   -0.236838    1.257540
siesta:   1158   -0.196845    1.533032   -1.070092
siesta:   1159    0.860459   -0.961545   -0.264530
siesta:   1160   -0.365777   -0.025406    0.621228
siesta:   1161    0.149807   -0.256585   -0.838906
siesta:   1162   -0.053801   -0.594358    0.539333
siesta:   1163    0.722303   -1.027761    0.264128
siesta:   1164    0.036366    0.787793    1.521061
siesta:   1165   -0.325502    0.796549   -1.305886
siesta:   1166   -0.552167   -0.772516    0.052223
siesta:   1167   -0.300553    0.453345    0.056203
siesta:   1168   -0.035931   -0.083949   -0.425842
siesta:   1169   -0.699643    0.628715   -0.015104
siesta:   1170    0.586867   -1.135993   -0.887230
siesta:   1171    0.596911    0.453699    1.474600
siesta:   1172   -0.322049    0.628197   -0.737918
siesta:   1173   -0.087894   -0.179288   -0.517217
siesta:   1174    0.398167   -0.514738    0.194915
siesta:   1175   -0.004177   -0.157537   -0.585610
siesta:   1176   -0.115082   -0.671411    1.369239
siesta:   1177    0.271804    1.467425    0.133005
siesta:   1178    0.007217   -0.098624   -0.445409
siesta:   1179   -0.065777    0.243242    0.108923
siesta:   1180    0.055642    0.204783   -0.750752
siesta:   1181    0.267243    0.650262   -0.984376
siesta:   1182    0.496402   -1.540715    0.205549
siesta:   1183   -0.750990    0.612998    1.435932
siesta:   1184    0.780142    0.191318   -0.713114
siesta:   1185    0.235754   -0.386563   -0.437470
siesta:   1186   -0.386511   -0.238045    0.382812
siesta:   1187    0.730630    0.078581   -0.517323
siesta:   1188   -1.705121   -0.616378   -0.202391
siesta:   1189    0.180608    1.490464    0.957827
siesta:   1190    0.374787    0.142549    0.889452
siesta:   1191    0.728444    0.087680   -0.095992
siesta:   1192   -0.168740   -0.671351   -0.524870
siesta:   1193    0.532318    0.547011    0.889049
siesta:   1194    1.117406   -0.177310   -1.204953
siesta:   1195   -1.758603   -0.027466    0.358131
siesta:   1196    0.762348   -0.500576   -0.546903
siesta:   1197   -0.423298    0.324851   -0.533184
siesta:   1198   -0.438809    0.193268    0.959972
siesta:   1199    0.460212   -0.590901   -0.665074
siesta:   1200   -0.422541    1.399705    0.449503
siesta:   1201    0.650208   -1.134493    1.251706
siesta:   1202   -0.025275   -0.575167   -0.792403
siesta:   1203   -0.094838   -0.270901   -0.535330
siesta:   1204   -0.093917    0.673648   -0.237956
siesta:   1205   -0.572308   -0.451460   -0.789740
siesta:   1206    0.725055    1.499327    1.396363
siesta:   1207    0.014052   -1.987292    0.313505
siesta:   1208   -0.687465   -0.159383   -0.228297
siesta:   1209   -0.206322    1.134925   -0.659570
siesta:   1210    0.501658    0.137233    0.338140
siesta:   1211    0.298008    0.624915    0.451482
siesta:   1212    0.658928   -0.984987    0.878052
siesta:   1213   -1.041189   -0.309966   -0.438966
siesta:   1214    0.449844    0.267765    0.488557
siesta:   1215    0.075000   -0.474274   -0.087423
siesta:   1216   -0.344933    0.361212   -0.513830
siesta:   1217    0.559064   -0.634649    0.746765
siesta:   1218    0.178154    0.149702   -1.671082
siesta:   1219   -0.519711    1.467865    0.395215
siesta:   1220   -0.296522   -0.252693   -0.125670
siesta:   1221    0.016839    0.014164    0.571017
siesta:   1222    0.230911   -1.004974    0.023339
siesta:   1223   -0.654807   -1.139457   -0.763164
siesta:   1224   -0.486263    1.816018   -0.448037
siesta:   1225    0.933768   -0.450979    1.312491
siesta:   1226    0.015268   -0.722240   -0.728296
siesta:   1227   -0.240247    0.312182   -0.446970
siesta:   1228    0.506686    0.836498    0.148523
siesta:   1229   -0.446152    0.608229   -0.365878
siesta:   1230    0.814977   -0.755735    1.582609
siesta:   1231   -1.483902   -0.925111   -0.535639
siesta:   1232    0.226404    0.102200    0.143553
siesta:   1233    0.134373    0.342782   -0.444661
siesta:   1234    0.459134   -0.038233    0.319089
siesta:   1235   -0.779401   -0.418195    0.826686
siesta:   1236   -1.544341    0.478339   -0.843072
siesta:   1237    2.201055    0.322623   -0.774483
siesta:   1238    0.359794    0.132587    0.249900
siesta:   1239   -0.267105   -0.380383    0.849795
siesta:   1240   -0.986345   -0.104857   -0.523571
siesta:   1241    0.097630    0.919764   -0.701056
siesta:   1242    1.854058    0.638176    0.851978
siesta:   1243   -1.077845   -1.157798    0.806265
siesta:   1244   -0.070153    0.727711   -0.530416
siesta:   1245   -0.147349   -0.941298    0.020668
siesta:   1246   -0.533677    0.046326   -0.491007
siesta:   1247   -1.612600   -0.430681    0.996467
siesta:   1248    0.843401   -0.637021    0.152382
siesta:   1249   -0.040178    0.642234   -1.025485
siesta:   1250    1.023681    0.779064    0.249072
siesta:   1251   -0.068977    0.040227   -0.205340
siesta:   1252   -0.111501   -0.364528    0.314233
siesta:   1253    0.063703   -0.119995   -0.129771
siesta:   1254   -0.303325   -0.255510    0.216611
siesta:   1255    0.327332    0.355691    0.153915
siesta:   1256    0.046543   -0.249985    0.546909
siesta:   1257    0.085922    0.713062    0.362758
siesta:   1258   -0.393466    0.041582   -0.366098
siesta:   1259    0.091939    0.666644    0.073535
siesta:   1260    0.254286   -0.165804   -0.448934
siesta:   1261    0.190831    0.074380   -0.194867
siesta:   1262    0.037691   -0.272049   -0.798483
siesta:   1263    0.782740    0.008041   -0.156252
siesta:   1264    0.210782    0.123139   -0.072999
siesta:   1265    0.304852    0.058609    0.243959
siesta:   1266    0.159393   -0.179665   -0.041180
siesta:   1267   -0.202122   -0.540382    0.193599
siesta:   1268    0.380572    0.004446    0.696024
siesta:   1269   -1.242751    0.166400    0.439247
siesta:   1270   -0.357666    0.287419   -0.027336
siesta:   1271   -0.074942   -0.344299    0.012670
siesta:   1272   -0.025387   -0.699282   -0.326641
siesta:   1273    0.069434   -0.238654   -0.063908
siesta:   1274    0.561947   -0.403239   -0.043337
siesta:   1275   -0.073106   -0.228802   -0.129243
siesta:   1276    0.003643    0.093994   -0.056753
siesta:   1277    0.023044   -0.005462    0.196418
siesta:   1278    0.168717    0.826587   -0.471824
siesta:   1279    0.147348   -0.049022    0.203876
siesta:   1280    0.317092    0.258122    0.020312
siesta:   1281   -0.621647   -0.460342    0.029765
siesta:   1282    0.459825   -0.451410    0.107558
siesta: ----------------------------------------
siesta:    Tot    0.078099    0.087586    0.017913

siesta: Stress tensor (static) (eV/Ang**3):
siesta:    -0.036529    0.001487    0.000851
siesta:     0.001487   -0.035733    0.001477
siesta:     0.000851    0.001477   -0.040556

siesta: Cell volume =      13041.289483 Ang**3

siesta: Pressure (static):
siesta:                Solid            Molecule  Units
siesta:           0.00040958          0.00050299  Ry/Bohr**3
siesta:           0.03760590          0.04618302  eV/Ang**3
siesta:          60.25195102         73.99415403  kBar
(Free)E+ p_basis*V_orbitals  =     -374499.943140
(Free)Eharris+ p_basis*V_orbitals  =     -374499.939884

Optical: Performing optical calculation: 

Optical: Polarization type       = polarized   
Optical: Minimum of energy range =   0.0001 Ry 
Optical: Maximum of energy range =   7.3498 Ry 
Optical: Gaussian broadening     =   0.0037 Ry 
Optical: Scissor operator        =   0.0000 Ry 
Optical: Number of bands         =    13386
Optical: Number of electrons     =     5346
Optical: BZ mesh dimensions      =    1   1   1

Optical: electric field direction
Optical:      0.00000     0.00000     1.00000

Optical: Checking f-sum rule  0.886164
Optical: For insulators and closed shell systems
Optical: this number should be close to 1 if an enough
Optical: number of unoccupied bands have been included

* Maximum dynamic memory allocated : Node    0 =   425 MB
* Maximum dynamic memory allocated : Node    1 =   423 MB
* Maximum dynamic memory allocated : Node    2 =   420 MB
* Maximum dynamic memory allocated : Node    3 =   423 MB
* Maximum dynamic memory allocated : Node    4 =   423 MB
* Maximum dynamic memory allocated : Node    5 =   425 MB
* Maximum dynamic memory allocated : Node    6 =   420 MB
* Maximum dynamic memory allocated : Node    7 =   419 MB
* Maximum dynamic memory allocated : Node    8 =   425 MB
* Maximum dynamic memory allocated : Node    9 =   424 MB
* Maximum dynamic memory allocated : Node   10 =   419 MB
* Maximum dynamic memory allocated : Node   11 =   424 MB
* Maximum dynamic memory allocated : Node   12 =   423 MB
* Maximum dynamic memory allocated : Node   13 =   426 MB
* Maximum dynamic memory allocated : Node   14 =   421 MB
* Maximum dynamic memory allocated : Node   15 =   418 MB
* Maximum dynamic memory allocated : Node   16 =   419 MB
* Maximum dynamic memory allocated : Node   17 =   420 MB
* Maximum dynamic memory allocated : Node   18 =   424 MB
* Maximum dynamic memory allocated : Node   19 =   427 MB
* Maximum dynamic memory allocated : Node   20 =   420 MB
* Maximum dynamic memory allocated : Node   21 =   423 MB
* Maximum dynamic memory allocated : Node   22 =   421 MB
* Maximum dynamic memory allocated : Node   23 =   424 MB
* Maximum dynamic memory allocated : Node   24 =   416 MB
* Maximum dynamic memory allocated : Node   25 =   416 MB
* Maximum dynamic memory allocated : Node   26 =   429 MB
* Maximum dynamic memory allocated : Node   27 =   431 MB
* Maximum dynamic memory allocated : Node   28 =   420 MB
* Maximum dynamic memory allocated : Node   29 =   422 MB
* Maximum dynamic memory allocated : Node   30 =   423 MB
* Maximum dynamic memory allocated : Node   31 =   422 MB
* Maximum dynamic memory allocated : Node   32 =   423 MB
* Maximum dynamic memory allocated : Node   33 =   415 MB
* Maximum dynamic memory allocated : Node   34 =   420 MB
* Maximum dynamic memory allocated : Node   35 =   421 MB
* Maximum dynamic memory allocated : Node   36 =   419 MB
* Maximum dynamic memory allocated : Node   37 =   419 MB
* Maximum dynamic memory allocated : Node   38 =   418 MB
* Maximum dynamic memory allocated : Node   39 =   419 MB
* Maximum dynamic memory allocated : Node   40 =   427 MB
* Maximum dynamic memory allocated : Node   41 =   422 MB
* Maximum dynamic memory allocated : Node   42 =   421 MB
* Maximum dynamic memory allocated : Node   43 =   418 MB
* Maximum dynamic memory allocated : Node   44 =   415 MB
* Maximum dynamic memory allocated : Node   45 =   420 MB
* Maximum dynamic memory allocated : Node   46 =   404 MB
* Maximum dynamic memory allocated : Node   47 =   404 MB
* Maximum dynamic memory allocated : Node   48 =   406 MB
* Maximum dynamic memory allocated : Node   49 =   403 MB
* Maximum dynamic memory allocated : Node   50 =   401 MB
* Maximum dynamic memory allocated : Node   51 =   400 MB
* Maximum dynamic memory allocated : Node   52 =   401 MB
* Maximum dynamic memory allocated : Node   53 =   403 MB
* Maximum dynamic memory allocated : Node   54 =   401 MB
* Maximum dynamic memory allocated : Node   55 =   401 MB
* Maximum dynamic memory allocated : Node   56 =   406 MB
* Maximum dynamic memory allocated : Node   57 =   402 MB
* Maximum dynamic memory allocated : Node   58 =   401 MB
* Maximum dynamic memory allocated : Node   59 =   400 MB
* Maximum dynamic memory allocated : Node   60 =   407 MB
* Maximum dynamic memory allocated : Node   61 =   406 MB
* Maximum dynamic memory allocated : Node   62 =   402 MB
* Maximum dynamic memory allocated : Node   63 =   403 MB

* Maximum memory occured during rdiag                         

timer: CPU execution times:
timer:  Routine       Calls   Time/call    Tot.time        %
timer:  siesta            115600268.37115600268.371   100.00
timer:  Setup             1     134.035     134.035     0.00
timer:  bands             1       0.009       0.009     0.00
timer:  writewave         1       0.054       0.054     0.00
timer:  KSV_init          1       0.003       0.003     0.00
timer:  IterMD            1  274142.817  274142.817     1.76
timer:  hsparse           1     108.732     108.732     0.00
timer:  overlap           1     117.126     117.126     0.00
timer:  IterSCF          24   11090.391  266169.394     1.71
timer:  kinefsm           2      65.710     131.420     0.00
timer:  nlefsm            2     535.581    1071.162     0.01
timer:  DHSCF            25    5249.098  131227.438     0.84
timer:  DHSCF1            1      66.805      66.805     0.00
timer:  DHSCF2            1    3350.671    3350.671     0.02
timer:  REORD           152       0.089      13.506     0.00
timer:  POISON           26      91.733    2385.049     0.02
timer:  DHSCF3           25    5021.065  125526.635     0.80
timer:  rhoofd           25    2199.100   54977.507     0.35
timer:  cellXC           25      71.836    1795.909     0.01
timer:  vmat             25    2377.601   59440.027     0.38
timer:  MolMec            2       0.105       0.209     0.00
timer:  diagon           24    5729.627  137511.040     0.88
timer:  r-eigvec         24    5307.854  127388.487     0.82
timer:  r-buildHS        24       1.050      25.212     0.00
timer:  rdiag            25    5307.112  132677.797     0.85
timer:  rdiag1           25     185.344    4633.605     0.03
timer:  rdiag2           25    1114.443   27861.075     0.18
timer:  rdiag3           25    3467.845   86696.120     0.56
timer:  rdiag4           25     362.779    9069.482     0.06
timer:  r-buildD         24     421.182   10108.374     0.06
timer:  DHSCF4            1    2260.235    2260.235     0.01
timer:  dfscf             1    2079.245    2079.245     0.01
timer:  overfsm           1      15.563      15.563     0.00
timer:  optical           115325890.75715325890.757    98.24
timer:  phirphiopt        1    1840.998    1840.998     0.01
timer:  transrate         115318373.18615318373.186    98.19
  

elaps: ELAPSED times:
elaps:  Routine       Calls   Time/call    Tot.time        %
elaps:  siesta            1   29587.629   29587.629   100.00
elaps:  Setup             1       2.081       2.081     0.01
elaps:  bands             1       0.000       0.000     0.00
elaps:  writewave         1       0.001       0.001     0.00
elaps:  KSV_init          1       0.000       0.000     0.00
elaps:  IterMD            1    4299.830    4299.830    14.53
elaps:  hsparse           1       1.723       1.723     0.01
elaps:  overlap           1       1.603       1.603     0.01
elaps:  IterSCF          24     173.969    4175.265    14.11
elaps:  kinefsm           2       0.912       1.823     0.01
elaps:  nlefsm            2       8.080      16.160     0.05
elaps:  DHSCF            25      82.257    2056.423     6.95
elaps:  DHSCF1            1       1.014       1.014     0.00
elaps:  DHSCF2            1      52.520      52.520     0.18
elaps:  REORD           152       0.001       0.194     0.00
elaps:  POISON           26       1.411      36.681     0.12
elaps:  DHSCF3           25      78.672    1966.797     6.65
elaps:  rhoofd           25      35.584     889.607     3.01
elaps:  cellXC           25       1.128      28.193     0.10
elaps:  vmat             25      37.258     931.452     3.15
elaps:  MolMec            2       0.002       0.003     0.00
elaps:  diagon           24      89.967    2159.208     7.30
elaps:  r-eigvec         24      83.282    1998.768     6.76
elaps:  r-buildHS        24       0.010       0.250     0.00
elaps:  rdiag            25      83.327    2083.176     7.04
elaps:  rdiag1           25       2.976      74.403     0.25
elaps:  rdiag2           25      17.544     438.608     1.48
elaps:  rdiag3           25      54.408    1360.191     4.60
elaps:  rdiag4           25       5.606     140.161     0.47
elaps:  r-buildD         24       6.676     160.236     0.54
elaps:  DHSCF4            1      36.020      36.020     0.12
elaps:  dfscf             1      33.276      33.276     0.11
elaps:  overfsm           1       0.242       0.242     0.00
elaps:  optical           1   25284.673   25284.673    85.46
elaps:  phirphiopt        1      27.844      27.844     0.09
elaps:  transrate         1   25165.489   25165.489    85.05
  
>> End of run:  13-SEP-2014  23:30:52
