#            ENERGY              s1              s2              total
        -30.30000000        0.00000000        0.00000000        0.00000000
        -30.23933934        0.00000074        0.00000060        0.00000134
        -30.17867868        0.00002070        0.00001730        0.00003801
        -30.11801802        0.00027569        0.00024075        0.00051643
        -30.05735736        0.00175876        0.00160457        0.00336333
        -29.99669670        0.00537993        0.00512805        0.01050798
        -29.93603604        0.00799017        0.00795589        0.01594606
        -29.87537538        0.00698360        0.00719278        0.01417639
        -29.81471471        0.01107979        0.01116505        0.02224483
        -29.75405405        0.03219609        0.03201698        0.06421307
        -29.69339339        0.06610867        0.06575524        0.13186391
        -29.63273273        0.09361544        0.09328824        0.18690368
        -29.57207207        0.10767668        0.10759961        0.21527629
        -29.51141141        0.11794084        0.11800638        0.23594722
        -29.45075075        0.13452312        0.13455526        0.26907837
        -29.39009009        0.15427529        0.15438564        0.30866093
        -29.32942943        0.17113511        0.17118608        0.34232119
        -29.26876877        0.17315879        0.17302256        0.34618135
        -29.20810811        0.15124691        0.15127578        0.30252269
        -29.14744745        0.11575322        0.11606564        0.23181886
        -29.08678679        0.07080656        0.07107381        0.14188037
        -29.02612613        0.03301620        0.03313072        0.06614692
        -28.96546547        0.01384497        0.01387997        0.02772494
        -28.90480480        0.00569246        0.00570064        0.01139310
        -28.84414414        0.00242946        0.00243087        0.00486033
        -28.78348348        0.00104068        0.00104089        0.00208157
        -28.72282282        0.00032717        0.00032723        0.00065440
        -28.66216216        0.00006086        0.00006088        0.00012174
        -28.60150150        0.00000609        0.00000610        0.00001219
        -28.54084084        0.00000030        0.00000030        0.00000060
        -28.48018018        0.00000000        0.00000000        0.00000000
        -28.41951952        0.00000000        0.00000000        0.00000000
        -28.35885886        0.00000000        0.00000000        0.00000000
        -28.29819820        0.00000000        0.00000000        0.00000000
        -28.23753754        0.00000000        0.00000000        0.00000000
        -28.17687688        0.00000000        0.00000000        0.00000000
        -28.11621622        0.00000000        0.00000000        0.00000000
        -28.05555556        0.00000000        0.00000000        0.00000000
        -27.99489489        0.00000000        0.00000000        0.00000000
        -27.93423423        0.00000000        0.00000000        0.00000000
        -27.87357357        0.00000000        0.00000000        0.00000000
        -27.81291291        0.00000000        0.00000000        0.00000000
        -27.75225225        0.00000000        0.00000000        0.00000000
        -27.69159159        0.00000000        0.00000000        0.00000000
        -27.63093093        0.00000000        0.00000000        0.00000000
        -27.57027027        0.00000000        0.00000000        0.00000000
        -27.50960961        0.00000000        0.00000000        0.00000000
        -27.44894895        0.00000000        0.00000000        0.00000000
        -27.38828829        0.00000000        0.00000000        0.00000000
        -27.32762763        0.00000000        0.00000000        0.00000000
        -27.26696697        0.00000000        0.00000000        0.00000000
        -27.20630631        0.00000000        0.00000000        0.00000000
        -27.14564565        0.00000000        0.00000000        0.00000000
        -27.08498498        0.00000000        0.00000000        0.00000000
        -27.02432432        0.00000000        0.00000000        0.00000000
        -26.96366366        0.00000000        0.00000000        0.00000000
        -26.90300300        0.00000000        0.00000000        0.00000000
        -26.84234234        0.00000000        0.00000000        0.00000000
        -26.78168168        0.00000000        0.00000000        0.00000000
        -26.72102102        0.00000000        0.00000000        0.00000000
        -26.66036036        0.00000000        0.00000000        0.00000000
        -26.59969970        0.00000000        0.00000000        0.00000000
        -26.53903904        0.00000000        0.00000000        0.00000000
        -26.47837838        0.00000000        0.00000000        0.00000000
        -26.41771772        0.00000000        0.00000000        0.00000000
        -26.35705706        0.00000000        0.00000000        0.00000000
        -26.29639640        0.00000000        0.00000000        0.00000000
        -26.23573574        0.00000000        0.00000000        0.00000000
        -26.17507508        0.00000000        0.00000000        0.00000000
        -26.11441441        0.00000000        0.00000000        0.00000000
        -26.05375375        0.00000000        0.00000000        0.00000000
        -25.99309309        0.00000000        0.00000000        0.00000000
        -25.93243243        0.00000000        0.00000000        0.00000000
        -25.87177177        0.00000000        0.00000000        0.00000000
        -25.81111111        0.00000000        0.00000000        0.00000000
        -25.75045045        0.00000000        0.00000000        0.00000000
        -25.68978979        0.00000000        0.00000000        0.00000000
        -25.62912913        0.00000000        0.00000000        0.00000000
        -25.56846847        0.00000000        0.00000000        0.00000000
        -25.50780781        0.00000000        0.00000000        0.00000000
        -25.44714715        0.00000000        0.00000000        0.00000000
        -25.38648649        0.00000000        0.00000000        0.00000000
        -25.32582583        0.00000000        0.00000000        0.00000000
        -25.26516517        0.00000000        0.00000000        0.00000000
        -25.20450450        0.00000000        0.00000000        0.00000000
        -25.14384384        0.00000000        0.00000000        0.00000000
        -25.08318318        0.00000000        0.00000000        0.00000000
        -25.02252252        0.00000000        0.00000000        0.00000000
        -24.96186186        0.00000000        0.00000000        0.00000000
        -24.90120120        0.00000000        0.00000000        0.00000000
        -24.84054054        0.00000000        0.00000000        0.00000000
        -24.77987988        0.00000000        0.00000000        0.00000000
        -24.71921922        0.00000000        0.00000000        0.00000000
        -24.65855856        0.00000000        0.00000000        0.00000000
        -24.59789790        0.00000000        0.00000000        0.00000000
        -24.53723724        0.00000000        0.00000000        0.00000000
        -24.47657658        0.00000000        0.00000000        0.00000000
        -24.41591592        0.00000000        0.00000000        0.00000000
        -24.35525526        0.00000000        0.00000000        0.00000000
        -24.29459459        0.00000000        0.00000000        0.00000000
        -24.23393393        0.00000000        0.00000000        0.00000000
        -24.17327327        0.00000000        0.00000000        0.00000000
        -24.11261261        0.00000000        0.00000000        0.00000000
        -24.05195195        0.00000000        0.00000000        0.00000000
        -23.99129129        0.00000000        0.00000000        0.00000000
        -23.93063063        0.00000000        0.00000000        0.00000000
        -23.86996997        0.00000000        0.00000000        0.00000000
        -23.80930931        0.00000000        0.00000000        0.00000000
        -23.74864865        0.00000000        0.00000000        0.00000000
        -23.68798799        0.00000000        0.00000000        0.00000000
        -23.62732733        0.00000000        0.00000000        0.00000000
        -23.56666667        0.00000000        0.00000000        0.00000000
        -23.50600601        0.00000000        0.00000000        0.00000000
        -23.44534535        0.00000000        0.00000000        0.00000000
        -23.38468468        0.00000000        0.00000000        0.00000000
        -23.32402402        0.00000000        0.00000000        0.00000000
        -23.26336336        0.00000000        0.00000000        0.00000000
        -23.20270270        0.00000000        0.00000000        0.00000000
        -23.14204204        0.00000000        0.00000000        0.00000000
        -23.08138138        0.00000000        0.00000000        0.00000000
        -23.02072072        0.00000000        0.00000000        0.00000000
        -22.96006006        0.00000000        0.00000000        0.00000000
        -22.89939940        0.00000000        0.00000000        0.00000000
        -22.83873874        0.00000000        0.00000000        0.00000000
        -22.77807808        0.00000000        0.00000000        0.00000000
        -22.71741742        0.00000000        0.00000000        0.00000000
        -22.65675676        0.00000000        0.00000000        0.00000000
        -22.59609610        0.00000000        0.00000000        0.00000000
        -22.53543544        0.00000000        0.00000000        0.00000000
        -22.47477477        0.00000000        0.00000000        0.00000000
        -22.41411411        0.00000000        0.00000000        0.00000000
        -22.35345345        0.00000000        0.00000000        0.00000000
        -22.29279279        0.00000000        0.00000000        0.00000000
        -22.23213213        0.00000000        0.00000000        0.00000000
        -22.17147147        0.00000000        0.00000000        0.00000000
        -22.11081081        0.00000000        0.00000000        0.00000000
        -22.05015015        0.00000000        0.00000000        0.00000000
        -21.98948949        0.00000000        0.00000000        0.00000000
        -21.92882883        0.00000000        0.00000000        0.00000000
        -21.86816817        0.00000000        0.00000000        0.00000000
        -21.80750751        0.00000000        0.00000000        0.00000000
        -21.74684685        0.00000000        0.00000000        0.00000000
        -21.68618619        0.00000000        0.00000000        0.00000000
        -21.62552553        0.00000000        0.00000000        0.00000000
        -21.56486486        0.00000000        0.00000000        0.00000000
        -21.50420420        0.00000000        0.00000000        0.00000000
        -21.44354354        0.00000000        0.00000000        0.00000000
        -21.38288288        0.00000000        0.00000000        0.00000000
        -21.32222222        0.00000000        0.00000000        0.00000000
        -21.26156156        0.00000000        0.00000000        0.00000000
        -21.20090090        0.00000000        0.00000000        0.00000000
        -21.14024024        0.00000000        0.00000000        0.00000000
        -21.07957958        0.00000000        0.00000000        0.00000000
        -21.01891892        0.00000000        0.00000000        0.00000000
        -20.95825826        0.00000000        0.00000000        0.00000000
        -20.89759760        0.00000000        0.00000000        0.00000000
        -20.83693694        0.00000000        0.00000000        0.00000000
        -20.77627628        0.00000000        0.00000000        0.00000000
        -20.71561562        0.00000003        0.00000003        0.00000006
        -20.65495495        0.00000048        0.00000047        0.00000096
        -20.59429429        0.00000442        0.00000433        0.00000875
        -20.53363363        0.00003684        0.00003598        0.00007282
        -20.47297297        0.00032221        0.00031562        0.00063783
        -20.41231231        0.00186505        0.00183695        0.00370201
        -20.35165165        0.00607328        0.00601217        0.01208544
        -20.29099099        0.01162945        0.01155466        0.02318411
        -20.23033033        0.01436838        0.01430399        0.02867237
        -20.16966967        0.01342693        0.01336457        0.02679150
        -20.10900901        0.01357201        0.01347496        0.02704697
        -20.04834835        0.01706732        0.01692829        0.03399560
        -19.98768769        0.02016008        0.02001031        0.04017040
        -19.92702703        0.02078810        0.02063890        0.04142700
        -19.86636637        0.02077356        0.02062597        0.04139953
        -19.80570571        0.02125012        0.02111972        0.04236984
        -19.74504505        0.02138299        0.02126685        0.04264984
        -19.68438438        0.02066327        0.02055300        0.04121628
        -19.62372372        0.02023370        0.02013432        0.04036802
        -19.56306306        0.02068123        0.02059841        0.04127964
        -19.50240240        0.02062648        0.02055327        0.04117975
        -19.44174174        0.01953048        0.01946095        0.03899143
        -19.38108108        0.01914110        0.01907258        0.03821368
        -19.32042042        0.02027733        0.02020589        0.04048322
        -19.25975976        0.02088741        0.02081643        0.04170384
        -19.19909910        0.01961772        0.01955162        0.03916934
        -19.13843844        0.01832061        0.01825586        0.03657646
        -19.07777778        0.01845661        0.01839043        0.03684704
        -19.01711712        0.01949681        0.01942575        0.03892256
        -18.95645646        0.02087762        0.02079821        0.04167583
        -18.89579580        0.02164002        0.02156378        0.04320380
        -18.83513514        0.02117197        0.02111547        0.04228744
        -18.77447447        0.01981656        0.01977514        0.03959171
        -18.71381381        0.01893599        0.01888944        0.03782544
        -18.65315315        0.01972979        0.01967761        0.03940741
        -18.59249249        0.02106428        0.02100412        0.04206840
        -18.53183183        0.02210903        0.02202968        0.04413872
        -18.47117117        0.02278700        0.02270046        0.04548746
        -18.41051051        0.02249885        0.02243017        0.04492902
        -18.34984985        0.02131602        0.02125507        0.04257109
        -18.28918919        0.02057141        0.02049261        0.04106401
        -18.22852853        0.02154149        0.02143546        0.04297695
        -18.16786787        0.02533039        0.02515573        0.05048613
        -18.10720721        0.03319486        0.03297042        0.06616528
        -18.04654655        0.03609908        0.03600115        0.07210023
        -17.98588589        0.02551356        0.02557464        0.05108819
        -17.92522523        0.01116706        0.01124382        0.02241088
        -17.86456456        0.00304685        0.00307738        0.00612423
        -17.80390390        0.00100132        0.00100506        0.00200637
        -17.74324324        0.00264026        0.00263311        0.00527338
        -17.68258258        0.00606993        0.00605882        0.01212876
        -17.62192192        0.00678314        0.00677837        0.01356151
        -17.56126126        0.00363231        0.00363388        0.00726620
        -17.50060060        0.00093179        0.00093325        0.00186505
        -17.43993994        0.00011451        0.00011482        0.00022933
        -17.37927928        0.00000674        0.00000677        0.00001351
        -17.31861862        0.00000021        0.00000021        0.00000043
        -17.25795796        0.00000089        0.00000087        0.00000176
        -17.19729730        0.00001901        0.00001847        0.00003748
        -17.13663664        0.00025424        0.00024709        0.00050133
        -17.07597598        0.00194246        0.00189951        0.00384198
        -17.01531532        0.00803296        0.00791929        0.01595224
        -16.95465465        0.01882557        0.01869567        0.03752125
        -16.89399399        0.02998894        0.02989940        0.05988834
        -16.83333333        0.04146008        0.04135292        0.08281299
        -16.77267267        0.05290606        0.05277595        0.10568201
        -16.71201201        0.05953264        0.05940811        0.11894075
        -16.65135135        0.05889262        0.05877056        0.11766318
        -16.59069069        0.05384825        0.05372535        0.10757360
        -16.53003003        0.05090857        0.05078198        0.10169056
        -16.46936937        0.05193529        0.05180246        0.10373775
        -16.40870871        0.05910720        0.05895376        0.11806096
        -16.34804805        0.06773537        0.06758049        0.13531586
        -16.28738739        0.06678659        0.06666816        0.13345476
        -16.22672673        0.06102115        0.06091637        0.12193752
        -16.16606607        0.05862767        0.05850097        0.11712864
        -16.10540541        0.05744976        0.05730747        0.11475723
        -16.04474474        0.05850546        0.05835645        0.11686192
        -15.98408408        0.06475942        0.06459489        0.12935432
        -15.92342342        0.07043846        0.07025597        0.14069442
        -15.86276276        0.06999347        0.06981245        0.13980592
        -15.80210210        0.07076529        0.07057990        0.14134519
        -15.74144144        0.07836992        0.07816678        0.15653670
        -15.68078078        0.08795867        0.08773832        0.17569699
        -15.62012012        0.09451559        0.09427600        0.18879160
        -15.55945946        0.09265744        0.09238246        0.18503990
        -15.49879880        0.08916887        0.08882408        0.17799295
        -15.43813814        0.09588737        0.09547776        0.19136513
        -15.37747748        0.10977186        0.10934242        0.21911428
        -15.31681682        0.12822781        0.12781256        0.25604037
        -15.25615616        0.14560550        0.14516574        0.29077124
        -15.19549550        0.15749487        0.15682139        0.31431626
        -15.13483483        0.17656111        0.17554330        0.35210441
        -15.07417417        0.20099754        0.20006503        0.40106257
        -15.01351351        0.21225932        0.21174025        0.42399957
        -14.95285285        0.21726083        0.21686670        0.43412754
        -14.89219219        0.23009711        0.22954068        0.45963779
        -14.83153153        0.24012107        0.23932121        0.47944228
        -14.77087087        0.23710786        0.23629600        0.47340386
        -14.71021021        0.23158063        0.23116335        0.46274398
        -14.64954955        0.20957195        0.20972111        0.41929306
        -14.58888889        0.14749570        0.14792257        0.29541827
        -14.52822823        0.08813640        0.08838874        0.17652514
        -14.46756757        0.06442240        0.06448314        0.12890554
        -14.40690691        0.04248876        0.04251555        0.08500431
        -14.34624625        0.01586636        0.01588587        0.03175223
        -14.28558559        0.00292808        0.00293395        0.00586204
        -14.22492492        0.00026035        0.00026109        0.00052144
        -14.16426426        0.00001126        0.00001130        0.00002256
        -14.10360360        0.00000580        0.00000517        0.00001097
        -14.04294294        0.00011192        0.00009923        0.00021115
        -13.98228228        0.00128904        0.00116783        0.00245687
        -13.92162162        0.00823489        0.00770508        0.01593997
        -13.86096096        0.03099857        0.02993492        0.06093350
        -13.80030030        0.07887816        0.07774986        0.15662801
        -13.73963964        0.14911469        0.14808804        0.29720273
        -13.67897898        0.21856147        0.21741169        0.43597316
        -13.61831832        0.28083236        0.27945324        0.56028560
        -13.55765766        0.34737264        0.34598006        0.69335270
        -13.49699700        0.40391059        0.40262749        0.80653808
        -13.43633634        0.43519317        0.43413484        0.86932801
        -13.37567568        0.42675009        0.42620185        0.85295194
        -13.31501502        0.40225273        0.40171273        0.80396545
        -13.25435435        0.40040900        0.39942232        0.79983132
        -13.19369369        0.40940470        0.40831591        0.81772061
        -13.13303303        0.40109608        0.40023101        0.80132708
        -13.07237237        0.37371344        0.37281555        0.74652899
        -13.01171171        0.33733686        0.33630980        0.67364665
        -12.95105105        0.31334154        0.31240451        0.62574605
        -12.89039039        0.33292704        0.33198085        0.66490789
        -12.82972973        0.38068924        0.37970051        0.76038976
        -12.76906907        0.39524156        0.39453249        0.78977405
        -12.70840841        0.36183001        0.36138687        0.72321688
        -12.64774775        0.31378904        0.31336906        0.62715810
        -12.58708709        0.27348473        0.27302648        0.54651121
        -12.52642643        0.25049849        0.25008005        0.50057855
        -12.46576577        0.23759109        0.23729839        0.47488948
        -12.40510511        0.21028930        0.21005224        0.42034154
        -12.34444444        0.15821711        0.15811938        0.31633649
        -12.28378378        0.10039858        0.10052671        0.20092529
        -12.22312312        0.07410993        0.07411444        0.14822437
        -12.16246246        0.07487220        0.07460644        0.14947864
        -12.10180180        0.06683589        0.06650699        0.13334288
        -12.04114114        0.05228544        0.05181174        0.10409718
        -11.98048048        0.06291583        0.06171339        0.12462922
        -11.91981982        0.10336164        0.10148411        0.20484575
        -11.85915916        0.14261342        0.14055326        0.28316668
        -11.79849850        0.18687488        0.18409535        0.37097023
        -11.73783784        0.26110576        0.25757695        0.51868271
        -11.67717718        0.33623589        0.33336874        0.66960463
        -11.61651652        0.37113976        0.36947884        0.74061860
        -11.55585586        0.38091474        0.37918291        0.76009765
        -11.49519520        0.38670513        0.38441169        0.77111681
        -11.43453453        0.37915453        0.37725012        0.75640464
        -11.37387387        0.36293737        0.36193836        0.72487572
        -11.31321321        0.36490122        0.36435779        0.72925901
        -11.25255255        0.38465829        0.38394963        0.76860792
        -11.19189189        0.39285295        0.39178159        0.78463454
        -11.13123123        0.37946367        0.37830168        0.75776535
        -11.07057057        0.35879850        0.35753148        0.71632998
        -11.00990991        0.32250844        0.32053594        0.64304438
        -10.94924925        0.25202556        0.24976218        0.50178775
        -10.88858859        0.17680597        0.17543399        0.35223996
        -10.82792793        0.14889120        0.14809501        0.29698622
        -10.76726727        0.18121412        0.18028192        0.36149603
        -10.70660661        0.22597381        0.22470953        0.45068334
        -10.64594595        0.25461615        0.25249673        0.50711287
        -10.58528529        0.31290614        0.30876662        0.62167276
        -10.52462462        0.41967178        0.41261107        0.83228285
        -10.46396396        0.50923164        0.50137642        1.01060806
        -10.40330330        0.51195462        0.50758132        1.01953594
        -10.34264264        0.45801373        0.45693489        0.91494862
        -10.28198198        0.42147811        0.42103540        0.84251351
        -10.22132132        0.43160418        0.43052384        0.86212802
        -10.16066066        0.49793868        0.49558607        0.99352476
        -10.10000000        0.60940316        0.60553079        1.21493395
        -10.03933934        0.68599871        0.68139687        1.36739558
         -9.97867868        0.67858941        0.67467186        1.35326127
         -9.91801802        0.67193362        0.66774252        1.33967614
         -9.85735736        0.75225642        0.74412516        1.49638158
         -9.79669670        0.86761067        0.85414453        1.72175520
         -9.73603604        0.94777991        0.93404971        1.88182963
         -9.67537538        1.03145526        1.02290669        2.05436195
         -9.61471471        1.13893934        1.13478433        2.27372367
         -9.55405405        1.20559960        1.20222985        2.40782945
         -9.49339339        1.22881111        1.22429570        2.45310680
         -9.43273273        1.21211395        1.20634033        2.41845428
         -9.37207207        1.16470047        1.15696082        2.32166129
         -9.31141141        1.13684926        1.12690462        2.26375387
         -9.25075075        1.13476712        1.12478075        2.25954787
         -9.19009009        1.13429317        1.12691471        2.26120788
         -9.12942943        1.12888254        1.12382134        2.25270388
         -9.06876877        1.15034992        1.14507284        2.29542276
         -9.00810811        1.21438559        1.20737764        2.42176323
         -8.94744745        1.27321904        1.26519691        2.53841595
         -8.88678679        1.27751356        1.26934164        2.54685520
         -8.82612613        1.26593224        1.25755148        2.52348371
         -8.76546547        1.28119929        1.27273498        2.55393428
         -8.70480480        1.30671930        1.29818459        2.60490389
         -8.64414414        1.33345194        1.32484606        2.65829800
         -8.58348348        1.33412617        1.32547728        2.65960345
         -8.52282282        1.31485550        1.30461663        2.61947212
         -8.46216216        1.31358588        1.30034009        2.61392597
         -8.40150150        1.27161845        1.25756799        2.52918644
         -8.34084084        1.14550803        1.13338441        2.27889243
         -8.28018018        1.07931691        1.06638237        2.14569928
         -8.21951952        1.58944123        1.56358100        3.15302223
         -8.15885886        3.24555043        3.20287763        6.44842806
         -8.09819820        4.66489875        4.63330327        9.29820201
         -8.03753754        3.87128459        3.82073212        7.69201671
         -7.97687688        2.52784538        2.25570361        4.78354899
         -7.91621622        2.78323007        2.07917005        4.86240012
         -7.85555556        3.91576347        3.13174277        7.04750624
         -7.79489489        4.16827917        4.00381899        8.17209817
         -7.73423423        3.60427529        3.91672523        7.52100052
         -7.67357357        3.52679015        3.81683900        7.34362915
         -7.61291291        4.00533285        4.29978673        8.30511958
         -7.55225225        4.89969244        5.16878255       10.06847499
         -7.49159159        8.36585716        8.06497744       16.43083461
         -7.43093093       18.10322713       16.27460231       34.37782944
         -7.37027027       34.79250305       31.04457221       65.83707526
         -7.30960961       52.50261809       48.91313875      101.41575685
         -7.24894895       58.31582747       58.07291859      116.38874606
         -7.18828829       46.19610967       48.99026547       95.18637513
         -7.12762763       30.61935757       33.82707042       64.44642799
         -7.06696697       25.04014700       26.57023649       51.61038350
         -7.00630631       25.30705757       24.47566727       49.78272484
         -6.94564565       25.96773188       25.30007674       51.26780861
         -6.88498498       28.51321319       29.07854627       57.59175947
         -6.82432432       33.39313693       33.18297702       66.57611395
         -6.76366366       41.11839558       40.11567928       81.23407487
         -6.70300300       48.98896653       47.65282246       96.64178899
         -6.64234234       52.84451643       51.61144223      104.45595866
         -6.58168168       54.60218225       54.31122491      108.91340716
         -6.52102102       55.42929493       55.69183357      111.12112850
         -6.46036036       54.72522598       55.38027581      110.10550179
         -6.39969970       58.46774554       58.50021869      116.96796423
         -6.33903904       66.94223263       65.66532057      132.60755320
         -6.27837838       69.58694212       69.03103980      138.61798192
         -6.21771772       67.72139530       68.53824629      136.25964160
         -6.15705706       70.61624483       71.38174285      141.99798768