#            ENERGY              s1              s2              total
        -30.30000000        0.00000000        0.00000000        0.00000000
        -30.23933934        0.00000022        0.00000018        0.00000040
        -30.17867868        0.00000617        0.00000518        0.00001134
        -30.11801802        0.00008213        0.00007203        0.00015416
        -30.05735736        0.00052396        0.00048012        0.00100409
        -29.99669670        0.00160414        0.00153580        0.00313994
        -29.93603604        0.00241084        0.00241067        0.00482151
        -29.87537538        0.00241749        0.00248529        0.00490277
        -29.81471471        0.00513923        0.00515871        0.01029794
        -29.75405405        0.01458982        0.01452257        0.02911239
        -29.69339339        0.02740247        0.02728811        0.05469058
        -29.63273273        0.03894546        0.03884405        0.07778951
        -29.57207207        0.05169957        0.05167863        0.10337820
        -29.51141141        0.06430842        0.06433419        0.12864260
        -29.45075075        0.07511429        0.07515154        0.15026583
        -29.39009009        0.08585154        0.08593439        0.17178593
        -29.32942943        0.09753577        0.09754844        0.19508421
        -29.26876877        0.10161186        0.10152676        0.20313863
        -29.20810811        0.08861638        0.08866563        0.17728201
        -29.14744745        0.06557620        0.06579120        0.13136740
        -29.08678679        0.03895869        0.03913016        0.07808885
        -29.02612613        0.01754372        0.01761850        0.03516222
        -28.96546547        0.00706408        0.00708749        0.01415157
        -28.90480480        0.00328972        0.00329479        0.00658451
        -28.84414414        0.00184917        0.00184992        0.00369909
        -28.78348348        0.00091201        0.00091213        0.00182413
        -28.72282282        0.00029406        0.00029411        0.00058817
        -28.66216216        0.00005464        0.00005466        0.00010930
        -28.60150150        0.00000545        0.00000545        0.00001090
        -28.54084084        0.00000027        0.00000027        0.00000053
        -28.48018018        0.00000000        0.00000000        0.00000000
        -28.41951952        0.00000000        0.00000000        0.00000000
        -28.35885886        0.00000000        0.00000000        0.00000000
        -28.29819820        0.00000000        0.00000000        0.00000000
        -28.23753754        0.00000000        0.00000000        0.00000000
        -28.17687688        0.00000000        0.00000000        0.00000000
        -28.11621622        0.00000000        0.00000000        0.00000000
        -28.05555556        0.00000000        0.00000000        0.00000000
        -27.99489489        0.00000000        0.00000000        0.00000000
        -27.93423423        0.00000000        0.00000000        0.00000000
        -27.87357357        0.00000000        0.00000000        0.00000000
        -27.81291291        0.00000000        0.00000000        0.00000000
        -27.75225225        0.00000000        0.00000000        0.00000000
        -27.69159159        0.00000000        0.00000000        0.00000000
        -27.63093093        0.00000000        0.00000000        0.00000000
        -27.57027027        0.00000000        0.00000000        0.00000000
        -27.50960961        0.00000000        0.00000000        0.00000000
        -27.44894895        0.00000000        0.00000000        0.00000000
        -27.38828829        0.00000000        0.00000000        0.00000000
        -27.32762763        0.00000000        0.00000000        0.00000000
        -27.26696697        0.00000000        0.00000000        0.00000000
        -27.20630631        0.00000000        0.00000000        0.00000000
        -27.14564565        0.00000000        0.00000000        0.00000000
        -27.08498498        0.00000000        0.00000000        0.00000000
        -27.02432432        0.00000000        0.00000000        0.00000000
        -26.96366366        0.00000000        0.00000000        0.00000000
        -26.90300300        0.00000000        0.00000000        0.00000000
        -26.84234234        0.00000000        0.00000000        0.00000000
        -26.78168168        0.00000000        0.00000000        0.00000000
        -26.72102102        0.00000000        0.00000000        0.00000000
        -26.66036036        0.00000000        0.00000000        0.00000000
        -26.59969970        0.00000000        0.00000000        0.00000000
        -26.53903904        0.00000000        0.00000000        0.00000000
        -26.47837838        0.00000000        0.00000000        0.00000000
        -26.41771772        0.00000000        0.00000000        0.00000000
        -26.35705706        0.00000000        0.00000000        0.00000000
        -26.29639640        0.00000000        0.00000000        0.00000000
        -26.23573574        0.00000000        0.00000000        0.00000000
        -26.17507508        0.00000000        0.00000000        0.00000000
        -26.11441441        0.00000000        0.00000000        0.00000000
        -26.05375375        0.00000000        0.00000000        0.00000000
        -25.99309309        0.00000000        0.00000000        0.00000000
        -25.93243243        0.00000000        0.00000000        0.00000000
        -25.87177177        0.00000000        0.00000000        0.00000000
        -25.81111111        0.00000000        0.00000000        0.00000000
        -25.75045045        0.00000000        0.00000000        0.00000000
        -25.68978979        0.00000000        0.00000000        0.00000000
        -25.62912913        0.00000000        0.00000000        0.00000000
        -25.56846847        0.00000000        0.00000000        0.00000000
        -25.50780781        0.00000000        0.00000000        0.00000000
        -25.44714715        0.00000000        0.00000000        0.00000000
        -25.38648649        0.00000000        0.00000000        0.00000000
        -25.32582583        0.00000000        0.00000000        0.00000000
        -25.26516517        0.00000000        0.00000000        0.00000000
        -25.20450450        0.00000000        0.00000000        0.00000000
        -25.14384384        0.00000000        0.00000000        0.00000000
        -25.08318318        0.00000000        0.00000000        0.00000000
        -25.02252252        0.00000000        0.00000000        0.00000000
        -24.96186186        0.00000000        0.00000000        0.00000000
        -24.90120120        0.00000000        0.00000000        0.00000000
        -24.84054054        0.00000000        0.00000000        0.00000000
        -24.77987988        0.00000000        0.00000000        0.00000000
        -24.71921922        0.00000000        0.00000000        0.00000000
        -24.65855856        0.00000000        0.00000000        0.00000000
        -24.59789790        0.00000000        0.00000000        0.00000000
        -24.53723724        0.00000000        0.00000000        0.00000000
        -24.47657658        0.00000000        0.00000000        0.00000000
        -24.41591592        0.00000000        0.00000000        0.00000000
        -24.35525526        0.00000000        0.00000000        0.00000000
        -24.29459459        0.00000000        0.00000000        0.00000000
        -24.23393393        0.00000000        0.00000000        0.00000000
        -24.17327327        0.00000000        0.00000000        0.00000000
        -24.11261261        0.00000000        0.00000000        0.00000000
        -24.05195195        0.00000000        0.00000000        0.00000000
        -23.99129129        0.00000000        0.00000000        0.00000000
        -23.93063063        0.00000000        0.00000000        0.00000000
        -23.86996997        0.00000000        0.00000000        0.00000000
        -23.80930931        0.00000000        0.00000000        0.00000000
        -23.74864865        0.00000000        0.00000000        0.00000000
        -23.68798799        0.00000000        0.00000000        0.00000000
        -23.62732733        0.00000000        0.00000000        0.00000000
        -23.56666667        0.00000000        0.00000000        0.00000000
        -23.50600601        0.00000000        0.00000000        0.00000000
        -23.44534535        0.00000000        0.00000000        0.00000000
        -23.38468468        0.00000000        0.00000000        0.00000000
        -23.32402402        0.00000000        0.00000000        0.00000000
        -23.26336336        0.00000000        0.00000000        0.00000000
        -23.20270270        0.00000000        0.00000000        0.00000000
        -23.14204204        0.00000000        0.00000000        0.00000000
        -23.08138138        0.00000000        0.00000000        0.00000000
        -23.02072072        0.00000000        0.00000000        0.00000000
        -22.96006006        0.00000000        0.00000000        0.00000000
        -22.89939940        0.00000000        0.00000000        0.00000000
        -22.83873874        0.00000000        0.00000000        0.00000000
        -22.77807808        0.00000000        0.00000000        0.00000000
        -22.71741742        0.00000000        0.00000000        0.00000000
        -22.65675676        0.00000000        0.00000000        0.00000000
        -22.59609610        0.00000000        0.00000000        0.00000000
        -22.53543544        0.00000000        0.00000000        0.00000000
        -22.47477477        0.00000000        0.00000000        0.00000000
        -22.41411411        0.00000000        0.00000000        0.00000000
        -22.35345345        0.00000000        0.00000000        0.00000000
        -22.29279279        0.00000000        0.00000000        0.00000000
        -22.23213213        0.00000000        0.00000000        0.00000000
        -22.17147147        0.00000000        0.00000000        0.00000000
        -22.11081081        0.00000000        0.00000000        0.00000000
        -22.05015015        0.00000000        0.00000000        0.00000000
        -21.98948949        0.00000000        0.00000000        0.00000000
        -21.92882883        0.00000000        0.00000000        0.00000000
        -21.86816817        0.00000000        0.00000000        0.00000000
        -21.80750751        0.00000000        0.00000000        0.00000000
        -21.74684685        0.00000000        0.00000000        0.00000000
        -21.68618619        0.00000000        0.00000000        0.00000000
        -21.62552553        0.00000000        0.00000000        0.00000000
        -21.56486486        0.00000000        0.00000000        0.00000000
        -21.50420420        0.00000000        0.00000000        0.00000000
        -21.44354354        0.00000000        0.00000000        0.00000000
        -21.38288288        0.00000000        0.00000000        0.00000000
        -21.32222222        0.00000000        0.00000000        0.00000000
        -21.26156156        0.00000000        0.00000000        0.00000000
        -21.20090090        0.00000000        0.00000000        0.00000000
        -21.14024024        0.00000000        0.00000000        0.00000000
        -21.07957958        0.00000000        0.00000000        0.00000000
        -21.01891892        0.00000000        0.00000000        0.00000000
        -20.95825826        0.00000000        0.00000000        0.00000000
        -20.89759760        0.00000000        0.00000000        0.00000000
        -20.83693694        0.00000000        0.00000000        0.00000000
        -20.77627628        0.00000000        0.00000000        0.00000000
        -20.71561562        0.00000001        0.00000001        0.00000002
        -20.65495495        0.00000015        0.00000015        0.00000030
        -20.59429429        0.00000154        0.00000151        0.00000305
        -20.53363363        0.00001519        0.00001485        0.00003004
        -20.47297297        0.00014536        0.00014270        0.00028806
        -20.41231231        0.00085153        0.00084070        0.00169224
        -20.35165165        0.00272492        0.00270407        0.00542899
        -20.29099099        0.00503116        0.00501230        0.01004346
        -20.23033033        0.00585349        0.00584730        0.01170080
        -20.16966967        0.00481582        0.00481956        0.00963538
        -20.10900901        0.00402956        0.00403521        0.00806476
        -20.04834835        0.00451361        0.00451985        0.00903346
        -19.98768769        0.00460879        0.00460859        0.00921737
        -19.92702703        0.00421440        0.00419628        0.00841068
        -19.86636637        0.00488622        0.00485469        0.00974091
        -19.80570571        0.00650031        0.00646856        0.01296887
        -19.74504505        0.00761593        0.00758689        0.01520281
        -19.68438438        0.00784914        0.00782063        0.01566977
        -19.62372372        0.00791845        0.00789439        0.01581284
        -19.56306306        0.00822886        0.00821280        0.01644165
        -19.50240240        0.00826258        0.00825187        0.01651445
        -19.44174174        0.00793774        0.00793041        0.01586815
        -19.38108108        0.00810982        0.00810434        0.01621415
        -19.32042042        0.00902020        0.00901525        0.01803546
        -19.25975976        0.00937933        0.00937625        0.01875558
        -19.19909910        0.00831587        0.00831266        0.01662853
        -19.13843844        0.00732795        0.00732092        0.01464887
        -19.07777778        0.00763701        0.00762998        0.01526699
        -19.01711712        0.00835903        0.00835492        0.01671395
        -18.95645646        0.00869370        0.00868939        0.01738309
        -18.89579580        0.00833686        0.00833151        0.01666837
        -18.83513514        0.00759605        0.00759040        0.01518644
        -18.77447447        0.00713400        0.00712687        0.01426088
        -18.71381381        0.00728501        0.00727508        0.01456009
        -18.65315315        0.00805589        0.00804767        0.01610356
        -18.59249249        0.00834930        0.00834328        0.01669258
        -18.53183183        0.00757825        0.00756874        0.01514700
        -18.47117117        0.00691067        0.00689851        0.01380917
        -18.41051051        0.00705919        0.00705058        0.01410977
        -18.34984985        0.00753073        0.00752101        0.01505174
        -18.28918919        0.00811174        0.00809377        0.01620551
        -18.22852853        0.00861703        0.00859119        0.01720823
        -18.16786787        0.00913670        0.00909061        0.01822731
        -18.10720721        0.01080120        0.01074737        0.02154857
        -18.04654655        0.01133688        0.01133579        0.02267268
        -17.98588589        0.00783675        0.00788101        0.01571776
        -17.92522523        0.00327424        0.00330765        0.00658189
        -17.86456456        0.00082995        0.00084089        0.00167084
        -17.80390390        0.00024667        0.00024789        0.00049456
        -17.74324324        0.00063456        0.00063227        0.00126682
        -17.68258258        0.00145903        0.00145496        0.00291399
        -17.62192192        0.00163050        0.00162778        0.00325827
        -17.56126126        0.00087312        0.00087265        0.00174577
        -17.50060060        0.00022398        0.00022411        0.00044809
        -17.43993994        0.00002753        0.00002757        0.00005510
        -17.37927928        0.00000162        0.00000163        0.00000325
        -17.31861862        0.00000005        0.00000005        0.00000010
        -17.25795796        0.00000027        0.00000027        0.00000054
        -17.19729730        0.00000609        0.00000590        0.00001199
        -17.13663664        0.00008354        0.00008114        0.00016468
        -17.07597598        0.00064746        0.00063301        0.00128047
        -17.01531532        0.00270525        0.00266700        0.00537225
        -16.95465465        0.00646709        0.00642379        0.01289088
        -16.89399399        0.01091473        0.01088614        0.02180087
        -16.83333333        0.01665254        0.01661971        0.03327225
        -16.77267267        0.02297369        0.02293710        0.04591079
        -16.71201201        0.02671184        0.02668222        0.05339406
        -16.65135135        0.02643243        0.02640604        0.05283846
        -16.59069069        0.02381162        0.02377922        0.04759084
        -16.53003003        0.02235207        0.02230990        0.04466197
        -16.46936937        0.02252111        0.02247691        0.04499802
        -16.40870871        0.02511985        0.02506883        0.05018868
        -16.34804805        0.02917190        0.02911468        0.05828658
        -16.28738739        0.03025074        0.03020247        0.06045320
        -16.22672673        0.02906560        0.02902184        0.05808744
        -16.16606607        0.02781390        0.02776325        0.05557715
        -16.10540541        0.02665854        0.02660147        0.05326001
        -16.04474474        0.02770799        0.02764798        0.05535597
        -15.98408408        0.03129397        0.03123366        0.06252763
        -15.92342342        0.03346610        0.03340340        0.06686950
        -15.86276276        0.03263014        0.03256296        0.06519310
        -15.80210210        0.03373073        0.03365268        0.06738341
        -15.74144144        0.03881495        0.03872885        0.07754380
        -15.68078078        0.04429840        0.04421041        0.08850881
        -15.62012012        0.04730529        0.04721879        0.09452408
        -15.55945946        0.04526311        0.04516944        0.09043254
        -15.49879880        0.04300431        0.04286970        0.08587402
        -15.43813814        0.04726528        0.04708638        0.09435166
        -15.37747748        0.05483190        0.05464602        0.10947792
        -15.31681682        0.06283888        0.06267700        0.12551587
        -15.25615616        0.07031870        0.07016004        0.14047874
        -15.19549550        0.07754117        0.07727602        0.15481720
        -15.13483483        0.08869583        0.08828393        0.17697976
        -15.07417417        0.10028209        0.09994254        0.20022463
        -15.01351351        0.10443210        0.10429302        0.20872513
        -14.95285285        0.10756680        0.10746797        0.21503476
        -14.89219219        0.11584439        0.11564468        0.23148907
        -14.83153153        0.12229930        0.12192659        0.24422590
        -14.77087087        0.12393440        0.12350899        0.24744339
        -14.71021021        0.12606001        0.12585599        0.25191600
        -14.64954955        0.11531557        0.11545666        0.23077223
        -14.58888889        0.07738034        0.07767613        0.15505647
        -14.52822823        0.03974883        0.03992049        0.07966932
        -14.46756757        0.02371210        0.02375397        0.04746607
        -14.40690691        0.01448199        0.01449278        0.02897477
        -14.34624625        0.00532990        0.00533621        0.01066611
        -14.28558559        0.00098104        0.00098293        0.00196397
        -14.22492492        0.00008718        0.00008742        0.00017460
        -14.16426426        0.00000377        0.00000378        0.00000755
        -14.10360360        0.00000168        0.00000153        0.00000321
        -14.04294294        0.00003229        0.00002920        0.00006149
        -13.98228228        0.00038018        0.00035093        0.00073111
        -13.92162162        0.00260614        0.00247655        0.00508269
        -13.86096096        0.01114892        0.01086171        0.02201063
        -13.80030030        0.03230138        0.03190187        0.06420325
        -13.73963964        0.06397776        0.06354999        0.12752775
        -13.67897898        0.08982417        0.08946182        0.17928599
        -13.61831832        0.10729752        0.10694158        0.21423910
        -13.55765766        0.12869097        0.12834220        0.25703317
        -13.49699700        0.15311940        0.15281005        0.30592945
        -13.43633634        0.17203202        0.17178071        0.34381273
        -13.37567568        0.17507803        0.17496725        0.35004528
        -13.31501502        0.16913391        0.16897982        0.33811373
        -13.25435435        0.16740393        0.16705300        0.33445693
        -13.19369369        0.16652450        0.16612083        0.33264533
        -13.13303303        0.16100704        0.16067500        0.32168205
        -13.07237237        0.15118431        0.15081534        0.30199965
        -13.01171171        0.13855684        0.13812449        0.27668133
        -12.95105105        0.13294128        0.13255688        0.26549816
        -12.89039039        0.14756329        0.14717668        0.29473996
        -12.82972973        0.17275712        0.17238191        0.34513903
        -12.76906907        0.17806001        0.17786374        0.35592375
        -12.70840841        0.15820639        0.15811495        0.31632135
        -12.64774775        0.13358460        0.13344206        0.26702666
        -12.58708709        0.11829338        0.11809942        0.23639280
        -12.52642643        0.11364417        0.11347632        0.22712049
        -12.46576577        0.10928838        0.10918903        0.21847741
        -12.40510511        0.09511645        0.09502554        0.19014199
        -12.34444444        0.07115621        0.07111951        0.14227572
        -12.28378378        0.04518764        0.04526264        0.09045027
        -12.22312312        0.03210411        0.03212307        0.06422718
        -12.16246246        0.03052831        0.03043086        0.06095916
        -12.10180180        0.02581762        0.02570397        0.05152159
        -12.04114114        0.01956006        0.01937549        0.03893554
        -11.98048048        0.02471347        0.02419686        0.04891034
        -11.91981982        0.04292946        0.04210739        0.08503684
        -11.85915916        0.06210209        0.06118963        0.12329173
        -11.79849850        0.08384539        0.08263361        0.16647900
        -11.73783784        0.11490064        0.11345760        0.22835825
        -11.67717718        0.14042641        0.13941083        0.27983724
        -11.61651652        0.14857495        0.14809047        0.29666542
        -11.55585586        0.15474538        0.15413096        0.30887634
        -11.49519520        0.16571149        0.16478251        0.33049400
        -11.43453453        0.16816880        0.16733274        0.33550154
        -11.37387387        0.16131773        0.16075897        0.32207669
        -11.31321321        0.16122379        0.16076154        0.32198533
        -11.25255255        0.17093841        0.17043994        0.34137834
        -11.19189189        0.17379158        0.17330762        0.34709920
        -11.13123123        0.16342800        0.16303110        0.32645910
        -11.07057057        0.14528675        0.14490408        0.29019083
        -11.00990991        0.11791786        0.11737125        0.23528912
        -10.94924925        0.08295684        0.08232115        0.16527800
        -10.88858859        0.05478123        0.05429587        0.10907711
        -10.82792793        0.04452900        0.04417035        0.08869935
        -10.76726727        0.05245134        0.05209026        0.10454160
        -10.70660661        0.06903870        0.06855959        0.13759829
        -10.64594595        0.08998357        0.08913718        0.17912075
        -10.58528529        0.12694648        0.12517372        0.25212020
        -10.52462462        0.18219084        0.17879695        0.36098779
        -10.46396396        0.22797801        0.22385995        0.45183797
        -10.40330330        0.23237976        0.23006942        0.46244917
        -10.34264264        0.20513481        0.20475489        0.40988970
        -10.28198198        0.18018369        0.18018857        0.36037226
        -10.22132132        0.17856170        0.17814231        0.35670401
        -10.16066066        0.21240339        0.21117461        0.42357801
        -10.10000000        0.26717038        0.26508721        0.53225759
        -10.03933934        0.29238750        0.29004796        0.58243546
         -9.97867868        0.27918176        0.27727943        0.55646119
         -9.91801802        0.28932742        0.28720843        0.57653585
         -9.85735736        0.35082800        0.34655963        0.69738764
         -9.79669670        0.41590036        0.40842616        0.82432652
         -9.73603604        0.45464656        0.44649117        0.90113772
         -9.67537538        0.48709526        0.48182217        0.96891743
         -9.61471471        0.51585497        0.51345977        1.02931474
         -9.55405405        0.52362890        0.52200488        1.04563378
         -9.49339339        0.52688243        0.52469095        1.05157338
         -9.43273273        0.53113059        0.52816791        1.05929850
         -9.37207207        0.52887671        0.52494640        1.05382311
         -9.31141141        0.52210701        0.51733334        1.03944035
         -9.25075075        0.50712547        0.50253916        1.00966463
         -9.19009009        0.48613617        0.48285432        0.96899049
         -9.12942943        0.46605449        0.46396938        0.93002387
         -9.06876877        0.46162888        0.45952033        0.92114921
         -9.00810811        0.48293868        0.47994359        0.96288227
         -8.94744745        0.50956633        0.50607958        1.01564591
         -8.88678679        0.50710434        0.50383767        1.01094201
         -8.82612613        0.48292519        0.47985280        0.96277799
         -8.76546547        0.47048784        0.46723396        0.93772180
         -8.70480480        0.48523187        0.48144851        0.96668038
         -8.64414414        0.51492528        0.51064712        1.02557239
         -8.58348348        0.51600185        0.51160925        1.02761110
         -8.52282282        0.48642964        0.48140506        0.96783470
         -8.46216216        0.46317007        0.45655775        0.91972782
         -8.40150150        0.45736212        0.44971372        0.90707584
         -8.34084084        0.45656678        0.44927389        0.90584067
         -8.28018018        0.50367248        0.49530954        0.99898202
         -8.21951952        0.95036688        0.93269869        1.88306556
         -8.15885886        2.20537413        2.17609204        4.38146617
         -8.09819820        3.24617288        3.22561417        6.47178705
         -8.03753754        2.64179530        2.61001793        5.25181324
         -7.97687688        1.58874346        1.41108541        2.99982887
         -7.91621622        1.62989089        1.17523695        2.80512784
         -7.85555556        2.26159539        1.77621945        4.03781485
         -7.79489489        2.28340235        2.22343427        4.50683663
         -7.73423423        1.73172948        1.98792629        3.71965577
         -7.67357357        1.42291724        1.66085670        3.08377394
         -7.61291291        1.40737906        1.62153127        3.02891033
         -7.55225225        1.40724548        1.60757115        3.01481663
         -7.49159159        1.68749255        1.75633862        3.44383116
         -7.43093093        2.78785851        2.61391362        5.40177212
         -7.37027027        4.96017065        4.49993934        9.46010999
         -7.30960961        7.72662166        7.22420081       14.95082247
         -7.24894895        9.01415395        8.99892597       18.01307992
         -7.18828829        7.10273454        7.58223765       14.68497219
         -7.12762763        4.05987145        4.51313721        8.57300866
         -7.06696697        2.47135679        2.65814513        5.12950192
         -7.00630631        2.04294028        2.00719202        4.05013230
         -6.94564565        1.90875913        1.86339577        3.77215490
         -6.88498498        2.11000958        2.12233150        4.23234108
         -6.82432432        2.74788198        2.68974185        5.43762383
         -6.76366366        3.62022706        3.56555540        7.18578247
         -6.70300300        3.85260042        3.86504487        7.71764529
         -6.64234234        3.10393507        3.12182968        6.22576475
         -6.58168168        2.51023543        2.53641538        5.04665081
         -6.52102102        2.50085235        2.53933934        5.04019170
         -6.46036036        2.19590883        2.26645188        4.46236071
         -6.39969970        1.49446135        1.56326585        3.05772720
         -6.33903904        0.99608068        0.99004074        1.98612141
         -6.27837838        0.79942766        0.75905170        1.55847936
         -6.21771772        0.67043898        0.68201882        1.35245780
         -6.15705706        0.51012094        0.56095032        1.07107126