#            ENERGY              s1              s2              total
        -30.30000000        0.00000000        0.00000000        0.00000000
        -30.23933934        0.00000003        0.00000002        0.00000005
        -30.17867868        0.00000076        0.00000064        0.00000140
        -30.11801802        0.00001019        0.00000886        0.00001904
        -30.05735736        0.00006498        0.00005902        0.00012400
        -29.99669670        0.00019868        0.00018854        0.00038721
        -29.93603604        0.00029331        0.00029077        0.00058408
        -29.87537538        0.00023893        0.00024572        0.00048466
        -29.81471471        0.00032603        0.00032865        0.00065468
        -29.75405405        0.00107547        0.00106808        0.00214355
        -29.69339339        0.00254173        0.00252902        0.00507076
        -29.63273273        0.00360693        0.00359862        0.00720556
        -29.57207207        0.00337235        0.00337308        0.00674543
        -29.51141141        0.00277933        0.00278227        0.00556160
        -29.45075075        0.00284019        0.00283867        0.00567885
        -29.39009009        0.00327204        0.00327195        0.00654399
        -29.32942943        0.00355077        0.00355424        0.00710502
        -29.26876877        0.00342395        0.00342453        0.00684848
        -29.20810811        0.00301090        0.00301091        0.00602181
        -29.14744745        0.00248377        0.00248761        0.00497138
        -29.08678679        0.00156464        0.00156837        0.00313301
        -29.02612613        0.00069135        0.00069274        0.00138408
        -28.96546547        0.00026307        0.00026339        0.00052646
        -28.90480480        0.00008392        0.00008401        0.00016793
        -28.84414414        0.00001829        0.00001831        0.00003661
        -28.78348348        0.00000509        0.00000510        0.00001019
        -28.72282282        0.00000211        0.00000211        0.00000422
        -28.66216216        0.00000051        0.00000051        0.00000101
        -28.60150150        0.00000006        0.00000006        0.00000012
        -28.54084084        0.00000000        0.00000000        0.00000001
        -28.48018018        0.00000000        0.00000000        0.00000000
        -28.41951952        0.00000000        0.00000000        0.00000000
        -28.35885886        0.00000000        0.00000000        0.00000000
        -28.29819820        0.00000000        0.00000000        0.00000000
        -28.23753754        0.00000000        0.00000000        0.00000000
        -28.17687688        0.00000000        0.00000000        0.00000000
        -28.11621622        0.00000000        0.00000000        0.00000000
        -28.05555556        0.00000000        0.00000000        0.00000000
        -27.99489489        0.00000000        0.00000000        0.00000000
        -27.93423423        0.00000000        0.00000000        0.00000000
        -27.87357357        0.00000000        0.00000000        0.00000000
        -27.81291291        0.00000000        0.00000000        0.00000000
        -27.75225225        0.00000000        0.00000000        0.00000000
        -27.69159159        0.00000000        0.00000000        0.00000000
        -27.63093093        0.00000000        0.00000000        0.00000000
        -27.57027027        0.00000000        0.00000000        0.00000000
        -27.50960961        0.00000000        0.00000000        0.00000000
        -27.44894895        0.00000000        0.00000000        0.00000000
        -27.38828829        0.00000000        0.00000000        0.00000000
        -27.32762763        0.00000000        0.00000000        0.00000000
        -27.26696697        0.00000000        0.00000000        0.00000000
        -27.20630631        0.00000000        0.00000000        0.00000000
        -27.14564565        0.00000000        0.00000000        0.00000000
        -27.08498498        0.00000000        0.00000000        0.00000000
        -27.02432432        0.00000000        0.00000000        0.00000000
        -26.96366366        0.00000000        0.00000000        0.00000000
        -26.90300300        0.00000000        0.00000000        0.00000000
        -26.84234234        0.00000000        0.00000000        0.00000000
        -26.78168168        0.00000000        0.00000000        0.00000000
        -26.72102102        0.00000000        0.00000000        0.00000000
        -26.66036036        0.00000000        0.00000000        0.00000000
        -26.59969970        0.00000000        0.00000000        0.00000000
        -26.53903904        0.00000000        0.00000000        0.00000000
        -26.47837838        0.00000000        0.00000000        0.00000000
        -26.41771772        0.00000000        0.00000000        0.00000000
        -26.35705706        0.00000000        0.00000000        0.00000000
        -26.29639640        0.00000000        0.00000000        0.00000000
        -26.23573574        0.00000000        0.00000000        0.00000000
        -26.17507508        0.00000000        0.00000000        0.00000000
        -26.11441441        0.00000000        0.00000000        0.00000000
        -26.05375375        0.00000000        0.00000000        0.00000000
        -25.99309309        0.00000000        0.00000000        0.00000000
        -25.93243243        0.00000000        0.00000000        0.00000000
        -25.87177177        0.00000000        0.00000000        0.00000000
        -25.81111111        0.00000000        0.00000000        0.00000000
        -25.75045045        0.00000000        0.00000000        0.00000000
        -25.68978979        0.00000000        0.00000000        0.00000000
        -25.62912913        0.00000000        0.00000000        0.00000000
        -25.56846847        0.00000000        0.00000000        0.00000000
        -25.50780781        0.00000000        0.00000000        0.00000000
        -25.44714715        0.00000000        0.00000000        0.00000000
        -25.38648649        0.00000000        0.00000000        0.00000000
        -25.32582583        0.00000000        0.00000000        0.00000000
        -25.26516517        0.00000000        0.00000000        0.00000000
        -25.20450450        0.00000000        0.00000000        0.00000000
        -25.14384384        0.00000000        0.00000000        0.00000000
        -25.08318318        0.00000000        0.00000000        0.00000000
        -25.02252252        0.00000000        0.00000000        0.00000000
        -24.96186186        0.00000000        0.00000000        0.00000000
        -24.90120120        0.00000000        0.00000000        0.00000000
        -24.84054054        0.00000000        0.00000000        0.00000000
        -24.77987988        0.00000000        0.00000000        0.00000000
        -24.71921922        0.00000000        0.00000000        0.00000000
        -24.65855856        0.00000000        0.00000000        0.00000000
        -24.59789790        0.00000000        0.00000000        0.00000000
        -24.53723724        0.00000000        0.00000000        0.00000000
        -24.47657658        0.00000000        0.00000000        0.00000000
        -24.41591592        0.00000000        0.00000000        0.00000000
        -24.35525526        0.00000000        0.00000000        0.00000000
        -24.29459459        0.00000000        0.00000000        0.00000000
        -24.23393393        0.00000000        0.00000000        0.00000000
        -24.17327327        0.00000000        0.00000000        0.00000000
        -24.11261261        0.00000000        0.00000000        0.00000000
        -24.05195195        0.00000000        0.00000000        0.00000000
        -23.99129129        0.00000000        0.00000000        0.00000000
        -23.93063063        0.00000000        0.00000000        0.00000000
        -23.86996997        0.00000000        0.00000000        0.00000000
        -23.80930931        0.00000000        0.00000000        0.00000000
        -23.74864865        0.00000000        0.00000000        0.00000000
        -23.68798799        0.00000000        0.00000000        0.00000000
        -23.62732733        0.00000000        0.00000000        0.00000000
        -23.56666667        0.00000000        0.00000000        0.00000000
        -23.50600601        0.00000000        0.00000000        0.00000000
        -23.44534535        0.00000000        0.00000000        0.00000000
        -23.38468468        0.00000000        0.00000000        0.00000000
        -23.32402402        0.00000000        0.00000000        0.00000000
        -23.26336336        0.00000000        0.00000000        0.00000000
        -23.20270270        0.00000000        0.00000000        0.00000000
        -23.14204204        0.00000000        0.00000000        0.00000000
        -23.08138138        0.00000000        0.00000000        0.00000000
        -23.02072072        0.00000000        0.00000000        0.00000000
        -22.96006006        0.00000000        0.00000000        0.00000000
        -22.89939940        0.00000000        0.00000000        0.00000000
        -22.83873874        0.00000000        0.00000000        0.00000000
        -22.77807808        0.00000000        0.00000000        0.00000000
        -22.71741742        0.00000000        0.00000000        0.00000000
        -22.65675676        0.00000000        0.00000000        0.00000000
        -22.59609610        0.00000000        0.00000000        0.00000000
        -22.53543544        0.00000000        0.00000000        0.00000000
        -22.47477477        0.00000000        0.00000000        0.00000000
        -22.41411411        0.00000000        0.00000000        0.00000000
        -22.35345345        0.00000000        0.00000000        0.00000000
        -22.29279279        0.00000000        0.00000000        0.00000000
        -22.23213213        0.00000000        0.00000000        0.00000000
        -22.17147147        0.00000000        0.00000000        0.00000000
        -22.11081081        0.00000000        0.00000000        0.00000000
        -22.05015015        0.00000000        0.00000000        0.00000000
        -21.98948949        0.00000000        0.00000000        0.00000000
        -21.92882883        0.00000000        0.00000000        0.00000000
        -21.86816817        0.00000000        0.00000000        0.00000000
        -21.80750751        0.00000000        0.00000000        0.00000000
        -21.74684685        0.00000000        0.00000000        0.00000000
        -21.68618619        0.00000000        0.00000000        0.00000000
        -21.62552553        0.00000000        0.00000000        0.00000000
        -21.56486486        0.00000000        0.00000000        0.00000000
        -21.50420420        0.00000000        0.00000000        0.00000000
        -21.44354354        0.00000000        0.00000000        0.00000000
        -21.38288288        0.00000000        0.00000000        0.00000000
        -21.32222222        0.00000000        0.00000000        0.00000000
        -21.26156156        0.00000000        0.00000000        0.00000000
        -21.20090090        0.00000000        0.00000000        0.00000000
        -21.14024024        0.00000000        0.00000000        0.00000000
        -21.07957958        0.00000000        0.00000000        0.00000000
        -21.01891892        0.00000000        0.00000000        0.00000000
        -20.95825826        0.00000000        0.00000000        0.00000000
        -20.89759760        0.00000000        0.00000000        0.00000000
        -20.83693694        0.00000000        0.00000000        0.00000000
        -20.77627628        0.00000000        0.00000000        0.00000000
        -20.71561562        0.00000000        0.00000000        0.00000000
        -20.65495495        0.00000003        0.00000003        0.00000006
        -20.59429429        0.00000027        0.00000027        0.00000054
        -20.53363363        0.00000240        0.00000235        0.00000475
        -20.47297297        0.00002151        0.00002109        0.00004260
        -20.41231231        0.00012700        0.00012512        0.00025212
        -20.35165165        0.00043174        0.00042729        0.00085904
        -20.29099099        0.00088393        0.00087764        0.00176157
        -20.23033033        0.00118079        0.00117416        0.00235496
        -20.16966967        0.00120703        0.00119951        0.00240654
        -20.10900901        0.00130385        0.00129291        0.00259676
        -20.04834835        0.00166351        0.00164942        0.00331293
        -19.98768769        0.00205963        0.00204588        0.00410551
        -19.92702703        0.00226528        0.00225291        0.00451819
        -19.86636637        0.00225240        0.00224164        0.00449403
        -19.80570571        0.00210171        0.00209364        0.00419535
        -19.74504505        0.00196273        0.00195603        0.00391876
        -19.68438438        0.00183268        0.00182609        0.00365877
        -19.62372372        0.00166589        0.00165985        0.00332573
        -19.56306306        0.00151976        0.00151472        0.00303449
        -19.50240240        0.00139458        0.00138969        0.00278427
        -19.44174174        0.00127350        0.00126799        0.00254148
        -19.38108108        0.00121809        0.00121212        0.00243022
        -19.32042042        0.00123332        0.00122724        0.00246056
        -19.25975976        0.00122241        0.00121662        0.00243902
        -19.19909910        0.00117555        0.00117016        0.00234571
        -19.13843844        0.00116798        0.00116252        0.00233050
        -19.07777778        0.00119905        0.00119299        0.00239204
        -19.01711712        0.00124719        0.00124069        0.00248788
        -18.95645646        0.00128706        0.00128072        0.00256778
        -18.89579580        0.00129319        0.00128738        0.00258057
        -18.83513514        0.00128053        0.00127558        0.00255612
        -18.77447447        0.00123128        0.00122692        0.00245820
        -18.71381381        0.00119142        0.00118667        0.00237809
        -18.65315315        0.00126055        0.00125550        0.00251605
        -18.59249249        0.00144888        0.00144319        0.00289207
        -18.53183183        0.00173160        0.00172454        0.00345614
        -18.47117117        0.00187233        0.00186512        0.00373745
        -18.41051051        0.00172570        0.00171987        0.00344558
        -18.34984985        0.00149705        0.00149132        0.00298837
        -18.28918919        0.00135612        0.00134837        0.00270449
        -18.22852853        0.00140613        0.00139596        0.00280209
        -18.16786787        0.00176086        0.00174683        0.00350769
        -18.10720721        0.00247942        0.00246259        0.00494201
        -18.04654655        0.00281469        0.00280571        0.00562040
        -17.98588589        0.00207097        0.00207370        0.00414468
        -17.92522523        0.00095873        0.00096432        0.00192305
        -17.86456456        0.00027835        0.00028098        0.00055933
        -17.80390390        0.00009387        0.00009427        0.00018815
        -17.74324324        0.00024258        0.00024211        0.00048469
        -17.68258258        0.00055703        0.00055644        0.00111347
        -17.62192192        0.00062246        0.00062250        0.00124496
        -17.56126126        0.00033332        0.00033372        0.00066704
        -17.50060060        0.00008551        0.00008571        0.00017121
        -17.43993994        0.00001051        0.00001054        0.00002105
        -17.37927928        0.00000062        0.00000062        0.00000124
        -17.31861862        0.00000002        0.00000002        0.00000004
        -17.25795796        0.00000008        0.00000007        0.00000015
        -17.19729730        0.00000147        0.00000144        0.00000291
        -17.13663664        0.00001865        0.00001818        0.00003683
        -17.07597598        0.00014258        0.00013976        0.00028235
        -17.01531532        0.00061414        0.00060658        0.00122072
        -16.95465465        0.00152300        0.00151390        0.00303690
        -16.89399399        0.00247650        0.00246919        0.00494570
        -16.83333333        0.00323795        0.00322866        0.00646661
        -16.77267267        0.00386812        0.00385686        0.00772498
        -16.71201201        0.00422265        0.00421176        0.00843441
        -16.65135135        0.00416235        0.00415161        0.00831396
        -16.59069069        0.00395341        0.00394290        0.00789630
        -16.53003003        0.00397833        0.00396792        0.00794625
        -16.46936937        0.00429003        0.00427854        0.00856857
        -16.40870871        0.00505005        0.00503771        0.01008776
        -16.34804805        0.00564856        0.00563944        0.01128800
        -16.28738739        0.00516391        0.00515929        0.01032319
        -16.22672673        0.00444757        0.00444176        0.00888933
        -16.16606607        0.00435633        0.00434564        0.00870197
        -16.10540541        0.00435601        0.00434331        0.00869932
        -16.04474474        0.00425288        0.00424120        0.00849408
        -15.98408408        0.00457779        0.00456594        0.00914372
        -15.92342342        0.00523216        0.00521902        0.01045119
        -15.86276276        0.00554645        0.00553385        0.01108030
        -15.80210210        0.00564180        0.00562982        0.01127163
        -15.74144144        0.00597974        0.00596759        0.01194733
        -15.68078078        0.00644222        0.00643016        0.01287238
        -15.62012012        0.00675781        0.00674463        0.01350244
        -15.55945946        0.00658681        0.00656973        0.01315655
        -15.49879880        0.00640234        0.00638033        0.01278267
        -15.43813814        0.00691021        0.00688581        0.01379602
        -15.37747748        0.00787958        0.00785495        0.01573452
        -15.31681682        0.00926187        0.00923853        0.01850040
        -15.25615616        0.01043557        0.01041304        0.02084862
        -15.19549550        0.01088797        0.01085516        0.02174313
        -15.13483483        0.01166024        0.01160881        0.02326905
        -15.07417417        0.01288667        0.01283622        0.02572289
        -15.01351351        0.01359100        0.01356121        0.02715221
        -14.95285285        0.01363547        0.01361613        0.02725160
        -14.89219219        0.01369807        0.01367440        0.02737247
        -14.83153153        0.01363401        0.01360354        0.02723756
        -14.77087087        0.01281573        0.01278493        0.02560065
        -14.71021021        0.01210175        0.01208181        0.02418356
        -14.64954955        0.01136808        0.01136967        0.02273775
        -14.58888889        0.00880858        0.00882384        0.01763242
        -14.52822823        0.00595337        0.00596287        0.01191624
        -14.46756757        0.00465936        0.00466173        0.00932109
        -14.40690691        0.00309465        0.00309646        0.00619112
        -14.34624625        0.00115368        0.00115512        0.00230880
        -14.28558559        0.00021273        0.00021316        0.00042589
        -14.22492492        0.00001891        0.00001896        0.00003787
        -14.16426426        0.00000084        0.00000084        0.00000168
        -14.10360360        0.00000110        0.00000099        0.00000208
        -14.04294294        0.00001999        0.00001773        0.00003772
        -13.98228228        0.00022354        0.00020180        0.00042534
        -13.92162162        0.00139035        0.00129441        0.00268475
        -13.86096096        0.00498254        0.00479029        0.00977283
        -13.80030030        0.01174566        0.01155589        0.02330154
        -13.73963964        0.02078847        0.02064501        0.04143348
        -13.67897898        0.02992055        0.02976889        0.05968944
        -13.61831832        0.03921379        0.03902858        0.07824237
        -13.55765766        0.04902480        0.04882393        0.09784873
        -13.49699700        0.05606977        0.05584571        0.11191548
        -13.43633634        0.05902216        0.05881358        0.11783574
        -13.37567568        0.05623338        0.05612884        0.11236222
        -13.31501502        0.05094403        0.05087196        0.10181598
        -13.25435435        0.04972355        0.04959628        0.09931983
        -13.19369369        0.05117023        0.05103077        0.10220100
        -13.13303303        0.05015308        0.05004902        0.10020210
        -13.07237237        0.04572442        0.04562645        0.09135086
        -13.01171171        0.04018256        0.04007269        0.08025526
        -12.95105105        0.03641311        0.03630839        0.07272150
        -12.89039039        0.03747824        0.03737267        0.07485091
        -12.82972973        0.04163475        0.04151644        0.08315119
        -12.76906907        0.04373802        0.04362660        0.08736462
        -12.70840841        0.04272572        0.04263821        0.08536394
        -12.64774775        0.03965078        0.03958041        0.07923119
        -12.58708709        0.03490461        0.03483655        0.06974116
        -12.52642643        0.03062928        0.03056004        0.06118933
        -12.46576577        0.02842185        0.02836565        0.05678750
        -12.40510511        0.02578137        0.02574348        0.05152485
        -12.34444444        0.01992286        0.01990678        0.03982964
        -12.28378378        0.01269743        0.01269824        0.02539568
        -12.22312312        0.00988847        0.00986646        0.01975492
        -12.16246246        0.01126755        0.01120494        0.02247248
        -12.10180180        0.01126751        0.01119339        0.02246090
        -12.04114114        0.00934203        0.00926195        0.01860397
        -11.98048048        0.00998672        0.00982357        0.01981029
        -11.91981982        0.01448403        0.01422823        0.02871226
        -11.85915916        0.01886836        0.01857850        0.03744686
        -11.79849850        0.02454928        0.02414576        0.04869504
        -11.73783784        0.03607239        0.03551418        0.07158657
        -11.67717718        0.05032070        0.04976935        0.10009006
        -11.61651652        0.05982670        0.05938632        0.11921302
        -11.55585586        0.06309887        0.06261852        0.12571739
        -11.49519520        0.06332461        0.06276075        0.12608537
        -11.43453453        0.06127418        0.06086809        0.12214227
        -11.37387387        0.05767991        0.05757672        0.11525663
        -11.31321321        0.05671790        0.05676441        0.11348230
        -11.25255255        0.06005025        0.05997875        0.12002900
        -11.19189189        0.06538555        0.06509439        0.13047994
        -11.13123123        0.07075721        0.07039228        0.14114948
        -11.07057057        0.07559151        0.07521941        0.15081092
        -11.00990991        0.07423335        0.07368235        0.14791570
        -10.94924925        0.06046076        0.05983494        0.12029571
        -10.88858859        0.04353473        0.04315678        0.08669151
        -10.82792793        0.03951508        0.03926599        0.07878108
        -10.76726727        0.05050802        0.05017793        0.10068595
        -10.70660661        0.06042269        0.06000333        0.12042602
        -10.64594595        0.06101068        0.06041839        0.12142907
        -10.58528529        0.06646341        0.06545533        0.13191874
        -10.52462462        0.08459690        0.08313045        0.16772735
        -10.46396396        0.10099688        0.09958855        0.20058543
        -10.40330330        0.09967682        0.09889801        0.19857483
        -10.34264264        0.08944657        0.08912077        0.17856734
        -10.28198198        0.08606207        0.08580694        0.17186901
        -10.22132132        0.09226524        0.09191589        0.18418112
        -10.16066066        0.10756409        0.10699462        0.21455871
        -10.10000000        0.13113905        0.13021662        0.26135567
        -10.03933934        0.15197325        0.15074623        0.30271947
         -9.97867868        0.15799179        0.15682887        0.31482066
         -9.91801802        0.15507390        0.15399765        0.30907155
         -9.85735736        0.16345094        0.16176959        0.32522052
         -9.79669670        0.18744088        0.18474372        0.37218460
         -9.73603604        0.21424204        0.21124520        0.42548724
         -9.67537538        0.24593136        0.24366284        0.48959420
         -9.61471471        0.28234586        0.28096729        0.56331315
         -9.55405405        0.30758599        0.30648332        0.61406931
         -9.49339339        0.31878567        0.31750297        0.63628864
         -9.43273273        0.30825784        0.30668615        0.61494400
         -9.37207207        0.28559560        0.28332350        0.56891909
         -9.31141141        0.28413133        0.28088060        0.56501193
         -9.25075075        0.30914303        0.30557400        0.61471703
         -9.19009009        0.33602772        0.33309503        0.66912274
         -9.12942943        0.35163018        0.34925713        0.70088731
         -9.06876877        0.37394030        0.37134445        0.74528475
         -9.00810811        0.41092961        0.40774356        0.81867317
         -8.94744745        0.44173109        0.43817298        0.87990408
         -8.88678679        0.45253673        0.44869724        0.90123397
         -8.82612613        0.46484166        0.46062896        0.92547062
         -8.76546547        0.49191955        0.48760871        0.97952826
         -8.70480480        0.51127208        0.50717579        1.01844787
         -8.64414414        0.51425820        0.51044621        1.02470441
         -8.58348348        0.51624800        0.51250004        1.02874804
         -8.52282282        0.53675932        0.53238205        1.06914137
         -8.46216216        0.57286339        0.56751842        1.14038182
         -8.40150150        0.56194886        0.55669106        1.11863993
         -8.34084084        0.47765238        0.47348439        0.95113678
         -8.28018018        0.39173418        0.38814183        0.77987601
         -8.21951952        0.39518251        0.39012044        0.78530295
         -8.15885886        0.56810165        0.56028500        1.12838666
         -8.09819820        0.74401434        0.73665654        1.48067089
         -8.03753754        0.66941293        0.65615944        1.32557236
         -7.97687688        0.58180208        0.52245797        1.10426005
         -7.91621622        0.77091193        0.61675143        1.38766337
         -7.85555556        1.10912705        0.92108430        2.03021135
         -7.79489489        1.29488664        1.21857374        2.51346038
         -7.73423423        1.36723776        1.38219555        2.74943331
         -7.67357357        1.63770368        1.64574682        3.28345050
         -7.61291291        2.12118503        2.15070830        4.27189333
         -7.55225225        3.01612364        3.02768964        6.04381328
         -7.49159159        6.05586123        5.67484135       11.73070258
         -7.43093093       14.13577726       12.57606730       26.71184456
         -7.37027027       27.69255838       24.60730698       52.29986536
         -7.30960961       41.61981636       38.71804759       80.33786395
         -7.24894895       45.70960615       45.48010255       91.18970870
         -7.18828829       36.19673420       38.33306780       74.52980200
         -7.12762763       24.90571687       27.47141785       52.37713472
         -7.06696697       21.72372535       22.96988600       44.69361135
         -7.00630631       22.65947845       21.86628777       44.52576622
         -6.94564565       23.42771057       22.82005024       46.24776081
         -6.88498498       25.62017247       26.15870408       51.77887655
         -6.82432432       29.52549623       29.38126288       58.90675911
         -6.76366366       35.79070904       34.88425751       70.67496654
         -6.70300300       43.02446909       41.73595906       84.76042815
         -6.64234234       47.78234791       46.57864351       94.36099142
         -6.58168168       50.43480825       50.12971022      100.56451846
         -6.52102102       51.44649251       51.66246343      103.10895593
         -6.46036036       51.26289767       51.81624527      103.07914294
         -6.39969970       55.80520782       55.74705302      111.55226084
         -6.33903904       64.48152830       63.25070457      127.73223287
         -6.27837838       66.92048454       66.46813004      133.38861458
         -6.21771772       65.02103590       65.83579426      130.85683016
         -6.15705706       68.05122495       68.71761165      136.76883660