#            ENERGY              s1              s2              total
        -30.30000000        0.00000000        0.00000000        0.00000000
        -30.23933934        0.00000050        0.00000040        0.00000089
        -30.17867868        0.00001377        0.00001149        0.00002526
        -30.11801802        0.00018337        0.00015986        0.00034323
        -30.05735736        0.00116982        0.00106542        0.00223524
        -29.99669670        0.00357711        0.00340372        0.00698083
        -29.93603604        0.00528602        0.00525445        0.01054047
        -29.87537538        0.00432718        0.00446177        0.00878896
        -29.81471471        0.00561453        0.00567768        0.01129221
        -29.75405405        0.01653079        0.01642633        0.03295713
        -29.69339339        0.03616447        0.03593811        0.07210257
        -29.63273273        0.05106305        0.05084556        0.10190862
        -29.57207207        0.05260476        0.05254790        0.10515266
        -29.51141141        0.05085310        0.05088992        0.10174302
        -29.45075075        0.05656863        0.05656505        0.11313369
        -29.39009009        0.06515170        0.06517931        0.13033101
        -29.32942943        0.07004856        0.07008340        0.14013196
        -29.26876877        0.06812297        0.06807127        0.13619424
        -29.20810811        0.05961962        0.05959924        0.11921886
        -29.14744745        0.04769325        0.04778683        0.09548008
        -29.08678679        0.03028323        0.03037529        0.06065851
        -29.02612613        0.01478113        0.01481948        0.02960062
        -28.96546547        0.00651782        0.00652909        0.01304690
        -28.90480480        0.00231881        0.00232184        0.00464066
        -28.84414414        0.00056200        0.00056263        0.00112463
        -28.78348348        0.00012358        0.00012366        0.00024725
        -28.72282282        0.00003100        0.00003101        0.00006202
        -28.66216216        0.00000571        0.00000571        0.00001142
        -28.60150150        0.00000059        0.00000059        0.00000118
        -28.54084084        0.00000003        0.00000003        0.00000006
        -28.48018018        0.00000000        0.00000000        0.00000000
        -28.41951952        0.00000000        0.00000000        0.00000000
        -28.35885886        0.00000000        0.00000000        0.00000000
        -28.29819820        0.00000000        0.00000000        0.00000000
        -28.23753754        0.00000000        0.00000000        0.00000000
        -28.17687688        0.00000000        0.00000000        0.00000000
        -28.11621622        0.00000000        0.00000000        0.00000000
        -28.05555556        0.00000000        0.00000000        0.00000000
        -27.99489489        0.00000000        0.00000000        0.00000000
        -27.93423423        0.00000000        0.00000000        0.00000000
        -27.87357357        0.00000000        0.00000000        0.00000000
        -27.81291291        0.00000000        0.00000000        0.00000000
        -27.75225225        0.00000000        0.00000000        0.00000000
        -27.69159159        0.00000000        0.00000000        0.00000000
        -27.63093093        0.00000000        0.00000000        0.00000000
        -27.57027027        0.00000000        0.00000000        0.00000000
        -27.50960961        0.00000000        0.00000000        0.00000000
        -27.44894895        0.00000000        0.00000000        0.00000000
        -27.38828829        0.00000000        0.00000000        0.00000000
        -27.32762763        0.00000000        0.00000000        0.00000000
        -27.26696697        0.00000000        0.00000000        0.00000000
        -27.20630631        0.00000000        0.00000000        0.00000000
        -27.14564565        0.00000000        0.00000000        0.00000000
        -27.08498498        0.00000000        0.00000000        0.00000000
        -27.02432432        0.00000000        0.00000000        0.00000000
        -26.96366366        0.00000000        0.00000000        0.00000000
        -26.90300300        0.00000000        0.00000000        0.00000000
        -26.84234234        0.00000000        0.00000000        0.00000000
        -26.78168168        0.00000000        0.00000000        0.00000000
        -26.72102102        0.00000000        0.00000000        0.00000000
        -26.66036036        0.00000000        0.00000000        0.00000000
        -26.59969970        0.00000000        0.00000000        0.00000000
        -26.53903904        0.00000000        0.00000000        0.00000000
        -26.47837838        0.00000000        0.00000000        0.00000000
        -26.41771772        0.00000000        0.00000000        0.00000000
        -26.35705706        0.00000000        0.00000000        0.00000000
        -26.29639640        0.00000000        0.00000000        0.00000000
        -26.23573574        0.00000000        0.00000000        0.00000000
        -26.17507508        0.00000000        0.00000000        0.00000000
        -26.11441441        0.00000000        0.00000000        0.00000000
        -26.05375375        0.00000000        0.00000000        0.00000000
        -25.99309309        0.00000000        0.00000000        0.00000000
        -25.93243243        0.00000000        0.00000000        0.00000000
        -25.87177177        0.00000000        0.00000000        0.00000000
        -25.81111111        0.00000000        0.00000000        0.00000000
        -25.75045045        0.00000000        0.00000000        0.00000000
        -25.68978979        0.00000000        0.00000000        0.00000000
        -25.62912913        0.00000000        0.00000000        0.00000000
        -25.56846847        0.00000000        0.00000000        0.00000000
        -25.50780781        0.00000000        0.00000000        0.00000000
        -25.44714715        0.00000000        0.00000000        0.00000000
        -25.38648649        0.00000000        0.00000000        0.00000000
        -25.32582583        0.00000000        0.00000000        0.00000000
        -25.26516517        0.00000000        0.00000000        0.00000000
        -25.20450450        0.00000000        0.00000000        0.00000000
        -25.14384384        0.00000000        0.00000000        0.00000000
        -25.08318318        0.00000000        0.00000000        0.00000000
        -25.02252252        0.00000000        0.00000000        0.00000000
        -24.96186186        0.00000000        0.00000000        0.00000000
        -24.90120120        0.00000000        0.00000000        0.00000000
        -24.84054054        0.00000000        0.00000000        0.00000000
        -24.77987988        0.00000000        0.00000000        0.00000000
        -24.71921922        0.00000000        0.00000000        0.00000000
        -24.65855856        0.00000000        0.00000000        0.00000000
        -24.59789790        0.00000000        0.00000000        0.00000000
        -24.53723724        0.00000000        0.00000000        0.00000000
        -24.47657658        0.00000000        0.00000000        0.00000000
        -24.41591592        0.00000000        0.00000000        0.00000000
        -24.35525526        0.00000000        0.00000000        0.00000000
        -24.29459459        0.00000000        0.00000000        0.00000000
        -24.23393393        0.00000000        0.00000000        0.00000000
        -24.17327327        0.00000000        0.00000000        0.00000000
        -24.11261261        0.00000000        0.00000000        0.00000000
        -24.05195195        0.00000000        0.00000000        0.00000000
        -23.99129129        0.00000000        0.00000000        0.00000000
        -23.93063063        0.00000000        0.00000000        0.00000000
        -23.86996997        0.00000000        0.00000000        0.00000000
        -23.80930931        0.00000000        0.00000000        0.00000000
        -23.74864865        0.00000000        0.00000000        0.00000000
        -23.68798799        0.00000000        0.00000000        0.00000000
        -23.62732733        0.00000000        0.00000000        0.00000000
        -23.56666667        0.00000000        0.00000000        0.00000000
        -23.50600601        0.00000000        0.00000000        0.00000000
        -23.44534535        0.00000000        0.00000000        0.00000000
        -23.38468468        0.00000000        0.00000000        0.00000000
        -23.32402402        0.00000000        0.00000000        0.00000000
        -23.26336336        0.00000000        0.00000000        0.00000000
        -23.20270270        0.00000000        0.00000000        0.00000000
        -23.14204204        0.00000000        0.00000000        0.00000000
        -23.08138138        0.00000000        0.00000000        0.00000000
        -23.02072072        0.00000000        0.00000000        0.00000000
        -22.96006006        0.00000000        0.00000000        0.00000000
        -22.89939940        0.00000000        0.00000000        0.00000000
        -22.83873874        0.00000000        0.00000000        0.00000000
        -22.77807808        0.00000000        0.00000000        0.00000000
        -22.71741742        0.00000000        0.00000000        0.00000000
        -22.65675676        0.00000000        0.00000000        0.00000000
        -22.59609610        0.00000000        0.00000000        0.00000000
        -22.53543544        0.00000000        0.00000000        0.00000000
        -22.47477477        0.00000000        0.00000000        0.00000000
        -22.41411411        0.00000000        0.00000000        0.00000000
        -22.35345345        0.00000000        0.00000000        0.00000000
        -22.29279279        0.00000000        0.00000000        0.00000000
        -22.23213213        0.00000000        0.00000000        0.00000000
        -22.17147147        0.00000000        0.00000000        0.00000000
        -22.11081081        0.00000000        0.00000000        0.00000000
        -22.05015015        0.00000000        0.00000000        0.00000000
        -21.98948949        0.00000000        0.00000000        0.00000000
        -21.92882883        0.00000000        0.00000000        0.00000000
        -21.86816817        0.00000000        0.00000000        0.00000000
        -21.80750751        0.00000000        0.00000000        0.00000000
        -21.74684685        0.00000000        0.00000000        0.00000000
        -21.68618619        0.00000000        0.00000000        0.00000000
        -21.62552553        0.00000000        0.00000000        0.00000000
        -21.56486486        0.00000000        0.00000000        0.00000000
        -21.50420420        0.00000000        0.00000000        0.00000000
        -21.44354354        0.00000000        0.00000000        0.00000000
        -21.38288288        0.00000000        0.00000000        0.00000000
        -21.32222222        0.00000000        0.00000000        0.00000000
        -21.26156156        0.00000000        0.00000000        0.00000000
        -21.20090090        0.00000000        0.00000000        0.00000000
        -21.14024024        0.00000000        0.00000000        0.00000000
        -21.07957958        0.00000000        0.00000000        0.00000000
        -21.01891892        0.00000000        0.00000000        0.00000000
        -20.95825826        0.00000000        0.00000000        0.00000000
        -20.89759760        0.00000000        0.00000000        0.00000000
        -20.83693694        0.00000000        0.00000000        0.00000000
        -20.77627628        0.00000000        0.00000000        0.00000000
        -20.71561562        0.00000002        0.00000002        0.00000004
        -20.65495495        0.00000030        0.00000030        0.00000060
        -20.59429429        0.00000261        0.00000256        0.00000516
        -20.53363363        0.00001925        0.00001879        0.00003804
        -20.47297297        0.00015534        0.00015183        0.00030716
        -20.41231231        0.00088652        0.00087113        0.00175765
        -20.35165165        0.00291661        0.00288080        0.00579741
        -20.29099099        0.00571435        0.00566472        0.01137907
        -20.23033033        0.00733409        0.00728252        0.01461661
        -20.16966967        0.00740408        0.00734550        0.01474958
        -20.10900901        0.00823861        0.00814684        0.01638545
        -20.04834835        0.01089020        0.01075901        0.02164922
        -19.98768769        0.01349167        0.01335585        0.02684751
        -19.92702703        0.01430842        0.01418971        0.02849813
        -19.86636637        0.01363494        0.01352965        0.02716459
        -19.80570571        0.01264810        0.01255752        0.02520562
        -19.74504505        0.01180433        0.01172393        0.02352827
        -19.68438438        0.01098146        0.01090628        0.02188774
        -19.62372372        0.01064936        0.01058009        0.02122945
        -19.56306306        0.01093261        0.01087089        0.02180350
        -19.50240240        0.01096931        0.01091172        0.02188103
        -19.44174174        0.01031925        0.01026255        0.02058180
        -19.38108108        0.00981319        0.00975612        0.01956931
        -19.32042042        0.01002381        0.00996340        0.01998721
        -19.25975976        0.01028568        0.01022356        0.02050924
        -19.19909910        0.01012630        0.01006880        0.02019510
        -19.13843844        0.00982468        0.00977241        0.01959709
        -19.07777778        0.00962055        0.00956746        0.01918800
        -19.01711712        0.00989059        0.00983014        0.01972073
        -18.95645646        0.01089686        0.01082810        0.02172496
        -18.89579580        0.01200998        0.01194488        0.02395486
        -18.83513514        0.01229538        0.01224950        0.02454488
        -18.77447447        0.01145128        0.01142135        0.02287263
        -18.71381381        0.01045956        0.01042768        0.02088725
        -18.65315315        0.01041335        0.01037444        0.02078780
        -18.59249249        0.01126610        0.01121765        0.02248375
        -18.53183183        0.01279918        0.01273640        0.02553558
        -18.47117117        0.01400399        0.01393684        0.02794083
        -18.41051051        0.01371396        0.01365971        0.02737367
        -18.34984985        0.01228823        0.01224274        0.02453098
        -18.28918919        0.01110355        0.01105047        0.02215401
        -18.22852853        0.01151833        0.01144830        0.02296663
        -18.16786787        0.01443283        0.01431829        0.02875112
        -18.10720721        0.01991424        0.01976046        0.03967470
        -18.04654655        0.02194750        0.02185965        0.04380715
        -17.98588589        0.01560584        0.01561992        0.03122576
        -17.92522523        0.00693409        0.00697185        0.01390594
        -17.86456456        0.00193855        0.00195550        0.00389406
        -17.80390390        0.00066077        0.00066290        0.00132367
        -17.74324324        0.00176313        0.00175874        0.00352186
        -17.68258258        0.00405387        0.00404742        0.00810130
        -17.62192192        0.00453019        0.00452809        0.00905828
        -17.56126126        0.00242588        0.00242751        0.00485338
        -17.50060060        0.00062231        0.00062343        0.00124574
        -17.43993994        0.00007648        0.00007670        0.00015318
        -17.37927928        0.00000450        0.00000452        0.00000902
        -17.31861862        0.00000014        0.00000014        0.00000028
        -17.25795796        0.00000054        0.00000053        0.00000107
        -17.19729730        0.00001145        0.00001113        0.00002258
        -17.13663664        0.00015205        0.00014777        0.00029982
        -17.07597598        0.00115242        0.00112674        0.00227916
        -17.01531532        0.00471357        0.00464570        0.00935927
        -16.95465465        0.01083549        0.01075798        0.02159347
        -16.89399399        0.01659771        0.01654406        0.03314177
        -16.83333333        0.02156959        0.02150454        0.04307413
        -16.77267267        0.02606425        0.02598199        0.05204624
        -16.71201201        0.02859815        0.02851413        0.05711228
        -16.65135135        0.02829784        0.02821292        0.05651075
        -16.59069069        0.02608322        0.02600323        0.05208646
        -16.53003003        0.02457817        0.02450416        0.04908233
        -16.46936937        0.02512415        0.02504701        0.05017116
        -16.40870871        0.02893730        0.02884723        0.05778453
        -16.34804805        0.03291492        0.03282637        0.06574128
        -16.28738739        0.03137195        0.03130641        0.06267836
        -16.22672673        0.02750797        0.02745277        0.05496074
        -16.16606607        0.02645745        0.02639208        0.05284953
        -16.10540541        0.02643522        0.02636269        0.05279790
        -16.04474474        0.02654459        0.02646727        0.05301186
        -15.98408408        0.02888767        0.02879530        0.05768297
        -15.92342342        0.03174020        0.03163354        0.06337374
        -15.86276276        0.03181687        0.03171564        0.06353252
        -15.80210210        0.03139275        0.03129740        0.06269015
        -15.74144144        0.03357523        0.03347034        0.06704557
        -15.68078078        0.03721805        0.03709776        0.07431581
        -15.62012012        0.04045250        0.04031258        0.08076508
        -15.55945946        0.04080752        0.04064329        0.08145081
        -15.49879880        0.03976222        0.03957405        0.07933627
        -15.43813814        0.04171188        0.04150556        0.08321745
        -15.37747748        0.04706039        0.04684145        0.09390184
        -15.31681682        0.05612707        0.05589703        0.11202409
        -15.25615616        0.06485123        0.06459266        0.12944389
        -15.19549550        0.06906572        0.06869020        0.13775592
        -15.13483483        0.07620504        0.07565056        0.15185560
        -15.07417417        0.08782878        0.08728627        0.17511506
        -15.01351351        0.09423622        0.09388601        0.18812223
        -14.95285285        0.09605856        0.09578260        0.19184117
        -14.89219219        0.10055465        0.10022161        0.20077626
        -14.83153153        0.10418775        0.10379108        0.20797883
        -14.77087087        0.10035773        0.10000208        0.20035981
        -14.71021021        0.09341887        0.09322555        0.18664442
        -14.64954955        0.08288830        0.08289478        0.16578308
        -14.58888889        0.06130678        0.06142260        0.12272938
        -14.52822823        0.04243420        0.04250538        0.08493958
        -14.46756757        0.03605093        0.03606744        0.07211838
        -14.40690691        0.02491211        0.02492631        0.04983842
        -14.34624625        0.00938278        0.00939454        0.01877732
        -14.28558559        0.00173432        0.00173786        0.00347218
        -14.22492492        0.00015426        0.00015470        0.00030897
        -14.16426426        0.00000666        0.00000668        0.00001333
        -14.10360360        0.00000302        0.00000266        0.00000568
        -14.04294294        0.00005964        0.00005230        0.00011194
        -13.98228228        0.00068532        0.00061509        0.00130042
        -13.92162162        0.00423840        0.00393412        0.00817252
        -13.86096096        0.01486711        0.01428292        0.02915003
        -13.80030030        0.03483112        0.03429210        0.06912322
        -13.73963964        0.06434847        0.06389304        0.12824150
        -13.67897898        0.09881675        0.09818098        0.19699773
        -13.61831832        0.13432104        0.13348308        0.26780412
        -13.55765766        0.16965686        0.16881394        0.33847080
        -13.49699700        0.19472143        0.19397173        0.38869316
        -13.43633634        0.20413899        0.20354055        0.40767955
        -13.37567568        0.19543868        0.19510576        0.39054444
        -13.31501502        0.18217478        0.18186095        0.36403574
        -13.25435435        0.18328151        0.18277305        0.36605456
        -13.19369369        0.19170997        0.19116430        0.38287427
        -13.13303303        0.18993595        0.18950698        0.37944294
        -13.07237237        0.17680472        0.17637376        0.35317847
        -13.01171171        0.15859745        0.15811262        0.31671007
        -12.95105105        0.14398715        0.14353924        0.28752639
        -12.89039039        0.14788552        0.14743150        0.29531701
        -12.82972973        0.16629737        0.16580216        0.33209954
        -12.76906907        0.17344353        0.17304216        0.34648569
        -12.70840841        0.16089790        0.16063370        0.32153160
        -12.64774775        0.14055366        0.14034659        0.28090025
        -12.58708709        0.12028673        0.12009051        0.24037724
        -12.52642643        0.10622504        0.10604368        0.21226873
        -12.46576577        0.09988086        0.09974371        0.19962457
        -12.40510511        0.08939147        0.08928322        0.17867470
        -12.34444444        0.06713805        0.06709309        0.13423113
        -12.28378378        0.04251351        0.04256583        0.08507934
        -12.22312312        0.03211735        0.03212492        0.06424227
        -12.16246246        0.03307635        0.03297065        0.06604700
        -12.10180180        0.02975075        0.02960963        0.05936039
        -12.04114114        0.02338336        0.02317431        0.04655766
        -11.98048048        0.02821564        0.02769295        0.05590859
        -11.91981982        0.04594816        0.04514850        0.09109665
        -11.85915916        0.06164297        0.06078512        0.12242809
        -11.79849850        0.07848021        0.07731599        0.15579620
        -11.73783784        0.11013273        0.10860517        0.21873790
        -11.67717718        0.14548878        0.14418856        0.28967733
        -11.61651652        0.16273811        0.16200206        0.32474017
        -11.55585586        0.16307049        0.16243344        0.32550393
        -11.49519520        0.15766902        0.15686842        0.31453745
        -11.43453453        0.14971155        0.14904928        0.29876084
        -11.37387387        0.14393973        0.14360267        0.28754240
        -11.31321321        0.14695953        0.14683184        0.29379137
        -11.25255255        0.15366963        0.15353094        0.30720057
        -11.19189189        0.15367582        0.15337958        0.30705540
        -11.13123123        0.14527846        0.14487830        0.29015676
        -11.07057057        0.13792024        0.13740799        0.27532823
        -11.00990991        0.13035722        0.12948234        0.25983956
        -10.94924925        0.10860796        0.10760609        0.21621404
        -10.88858859        0.07849000        0.07798133        0.15647134
        -10.82792793        0.06484712        0.06465867        0.12950579
        -10.76726727        0.07825475        0.07801373        0.15626849
        -10.70660661        0.09651242        0.09614661        0.19265903
        -10.64594595        0.10362189        0.10294116        0.20656305
        -10.58528529        0.11949625        0.11813757        0.23763383
        -10.52462462        0.15288404        0.15068367        0.30356771
        -10.46396396        0.18025675        0.17792792        0.35818467
        -10.40330330        0.17989804        0.17861390        0.35851193
        -10.34264264        0.16343235        0.16305923        0.32649158
        -10.28198198        0.15523234        0.15503989        0.31027223
        -10.22132132        0.16077724        0.16046564        0.32124288
        -10.16066066        0.17797120        0.17741684        0.35538804
        -10.10000000        0.21109373        0.21022696        0.42132069
        -10.03933934        0.24163796        0.24060269        0.48224065
         -9.97867868        0.24141586        0.24056357        0.48197943
         -9.91801802        0.22753230        0.22653643        0.45406873
         -9.85735736        0.23797748        0.23579594        0.47377342
         -9.79669670        0.26426944        0.26097465        0.52524408
         -9.73603604        0.27889132        0.27631334        0.55520466
         -9.67537538        0.29842864        0.29742168        0.59585032
         -9.61471471        0.34073851        0.34035727        0.68109578
         -9.55405405        0.37438472        0.37374165        0.74812637
         -9.49339339        0.38314300        0.38210178        0.76524479
         -9.43273273        0.37272551        0.37148627        0.74421178
         -9.37207207        0.35022816        0.34869092        0.69891908
         -9.31141141        0.33061092        0.32869068        0.65930159
         -9.25075075        0.31849861        0.31666759        0.63516620
         -9.19009009        0.31212928        0.31096536        0.62309464
         -9.12942943        0.31119787        0.31059483        0.62179271
         -9.06876877        0.31478074        0.31420806        0.62898880
         -9.00810811        0.32051729        0.31969049        0.64020778
         -8.94744745        0.32192161        0.32094435        0.64286596
         -8.88678679        0.31787248        0.31680674        0.63467922
         -8.82612613        0.31816539        0.31706973        0.63523511
         -8.76546547        0.31879190        0.31789231        0.63668421
         -8.70480480        0.31021535        0.30956029        0.61977563
         -8.64414414        0.30426846        0.30375274        0.60802119
         -8.58348348        0.30187632        0.30136800        0.60324432
         -8.52282282        0.29166653        0.29082952        0.58249605
         -8.46216216        0.27755241        0.27626392        0.55381633
         -8.40150150        0.25230747        0.25116320        0.50347068
         -8.34084084        0.21128886        0.21062613        0.42191499
         -8.28018018        0.18391025        0.18293100        0.36684125
         -8.21951952        0.24389185        0.24076186        0.48465372
         -8.15885886        0.47207464        0.46650059        0.93857523
         -8.09819820        0.67471152        0.67103255        1.34574407
         -8.03753754        0.56007636        0.55455475        1.11463111
         -7.97687688        0.35729983        0.32216023        0.67946007
         -7.91621622        0.38242724        0.28718167        0.66960891
         -7.85555556        0.54504103        0.43443901        0.97948004
         -7.79489489        0.58999018        0.56181098        1.15180116
         -7.73423423        0.50530805        0.54660339        1.05191144
         -7.67357357        0.46616923        0.51023548        0.97640471
         -7.61291291        0.47676877        0.52754715        1.00431592
         -7.55225225        0.47632332        0.53352176        1.00984508
         -7.49159159        0.62250339        0.63379748        1.25630087
         -7.43093093        1.17959136        1.08462140        2.26421276
         -7.37027027        2.13977402        1.93732589        4.07709990
         -7.30960961        3.15618008        2.97089036        6.12707043
         -7.24894895        3.59206736        3.59389007        7.18595744
         -7.18828829        2.89664092        3.07496001        5.97160094
         -7.12762763        1.65376925        1.84251536        3.49628461
         -7.06696697        0.84506485        0.94220537        1.78727022
         -7.00630631        0.60463884        0.60218747        1.20682631
         -6.94564565        0.63126217        0.61663072        1.24789290
         -6.88498498        0.78303115        0.79751069        1.58054183
         -6.82432432        1.11975872        1.11197229        2.23173101
         -6.76366366        1.70745948        1.66586638        3.37332586
         -6.70300300        2.11189702        2.05181852        4.16371554
         -6.64234234        1.95823346        1.91096903        3.86920249
         -6.58168168        1.65713857        1.64509931        3.30223788
         -6.52102102        1.48195007        1.49003080        2.97198087
         -6.46036036        1.26641948        1.29757867        2.56399815
         -6.39969970        1.16807637        1.18989982        2.35797619
         -6.33903904        1.46462365        1.42457526        2.88919892
         -6.27837838        1.86702992        1.80385806        3.67088798
         -6.21771772        2.02992042        2.02043321        4.05035363
         -6.15705706        2.05489895        2.10318087        4.15807982