Siesta Version:                                        siesta-3.1
Architecture  : x86_64-unknown-linux-gnu--Intel
Compiler flags: mpif90 -O3 -xSSSE3 -axSSE4.2,SSE4.1 -ip
PARALLEL version
NetCDF support

* Running on   64 nodes in parallel
>> Start of run:  10-MAY-2012  17:32:01

                           ***********************       
                           *  WELCOME TO SIESTA  *       
                           ***********************       

reinit: Reading from standard input
************************** Dump of input data file ****************************
SystemName      optical
SystemLabel     optical
NumberOfAtoms   32
NumberOfSpecies 1
MD.TypeOfRun    CG
MD.NumCGsteps   0
MD.ConstantVolume  .true.
SolutionMethod  diagon
XC.functional   GGA
XC.authors      PBE
PAO.BasisSize   DZP
DM.NumberPulay  7
DM.MixingWeight 0.1
DirectPhi       .true.
SaveMemory      .true.
MeshCutoff      500 Ry
MaxSCFiterations 200
UseSaveData     .true.
WriteMullikenPop 1
OpticalCalculation      .true.
%block Optical.Mesh
 1 1 1
%endblock Optical.Mesh
Optical.PolarizationType  polarized
%block Optical.Vector
 0.0 0.0 1.0
%endblock Optical.Vector
Optical.Broaden         0.05 eV
Optical.EnergyMinimum   0.001 eV
Optical.EnergyMaximum   100.0 eV
%block ChemicalSpeciesLabel
 1  47   Ag
%endblock ChemicalSpeciesLabel
LatticeConstant 1.0 Ang
%block LatticeParameters
  22.534   24.472   23.649   90.0 90.0 90.0
%endblock LatticeParameters
AtomicCoordinatesFormat Ang
%block AtomicCoordinatesAndAtomicSpecies < struct.coor
%endblock AtomicCoordinatesAndAtomicSpecies
************************** End of input data file *****************************

reinit: -----------------------------------------------------------------------
reinit: System Name: optical
reinit: -----------------------------------------------------------------------
reinit: System Label: optical                                                     
reinit: -----------------------------------------------------------------------

initatom: Reading input for the pseudopotentials and atomic orbitals ----------
 Species number:            1  Label: Ag Atomic number:          47
Ground state valence configuration:   5s01  4d10
Reading pseudopotential information in formatted form from Ag.psf

Valence configuration for pseudopotential generation:
5s( 1.00) rc: 2.52
5p( 0.00) rc: 2.72
4d(10.00) rc: 2.52
4f( 0.00) rc: 2.52
For Ag, standard SIESTA heuristics set lmxkb to 3
 (one more than the basis l, including polarization orbitals).
Use PS.lmax or PS.KBprojectors blocks to override.

<basis_specs>
===============================================================================
Ag                   Z=  47    Mass=  107.87        Charge= 0.17977+309
Lmxo=2 Lmxkb= 3    BasisType=split      Semic=F
L=0  Nsemic=0  Cnfigmx=5
          n=1  nzeta=2  polorb=1
            splnorm:   0.15000    
               vcte:    0.0000    
               rinn:    0.0000    
                rcs:    0.0000      0.0000    
            lambdas:    1.0000      1.0000    
L=1  Nsemic=0  Cnfigmx=5
L=2  Nsemic=0  Cnfigmx=4
          n=1  nzeta=2  polorb=0
            splnorm:   0.15000    
               vcte:    0.0000    
               rinn:    0.0000    
                rcs:    0.0000      0.0000    
            lambdas:    1.0000      1.0000    
-------------------------------------------------------------------------------
L=0  Nkbl=1  erefs: 0.17977+309
L=1  Nkbl=1  erefs: 0.17977+309
L=2  Nkbl=1  erefs: 0.17977+309
L=3  Nkbl=1  erefs: 0.17977+309
===============================================================================
</basis_specs>

atom: Called for Ag                    (Z =  47)

read_vps: Pseudopotential generation method:
read_vps: ATM 3.2.2 Troullier-Martins                       
Total valence charge:   11.00000

xc_check: Exchange-correlation functional:
xc_check: GGA Perdew, Burke & Ernzerhof 1996
V l=0 = -2*Zval/r beyond r=  2.4592
V l=1 = -2*Zval/r beyond r=  2.6507
V l=2 = -2*Zval/r beyond r=  2.4592
V l=3 = -2*Zval/r beyond r=  2.4592
All V_l potentials equal beyond r=  2.6507
This should be close to max(r_c) in ps generation
All pots = -2*Zval/r beyond r=  2.6507

VLOCAL1: 99.0% of the norm of Vloc inside      6.178 Ry
VLOCAL1: 99.9% of the norm of Vloc inside     14.079 Ry
atom: Maximum radius for 4*pi*r*r*local-pseudopot. charge    3.19739
atom: Maximum radius for r*vlocal+2*Zval:    2.82168
GHOST: No ghost state for L =  0
GHOST: No ghost state for L =  1
GHOST: No ghost state for L =  2
GHOST: No ghost state for L =  3

KBgen: Kleinman-Bylander projectors: 
   l= 0   rc=  2.966357   el= -0.323666   Ekb=  3.565490   kbcos=  0.247453
   l= 1   rc=  3.003670   el= -0.054265   Ekb=  1.619308   kbcos=  0.223076
   l= 2   rc=  2.786631   el= -0.547066   Ekb= -7.840816   kbcos= -0.714112
   l= 3   rc=  3.079709   el=  0.002953   Ekb= -2.732950   kbcos= -0.012571

KBgen: Total number of  Kleinman-Bylander projectors:   16
atom: -------------------------------------------------------------------------

atom: SANKEY-TYPE ORBITALS:
atom: Selected multiple-zeta basis: split     

SPLIT: Orbitals with angular momentum L= 0

SPLIT: Basis orbitals for state 5s

SPLIT: PAO cut-off radius determined from an
SPLIT: energy shift=  0.020000 Ry

   izeta = 1
                 lambda =    1.000000
                     rc =    6.684855
                 energy =   -0.305483
                kinetic =    0.327133
    potential(screened) =   -0.632616
       potential(ionic) =   -8.088030

   izeta = 2
                 rmatch =    6.279837
              splitnorm =    0.150000
                 energy =   -0.253539
                kinetic =    0.499634
    potential(screened) =   -0.753173
       potential(ionic) =   -8.691029

SPLIT: Orbitals with angular momentum L= 2

SPLIT: Basis orbitals for state 4d

SPLIT: PAO cut-off radius determined from an
SPLIT: energy shift=  0.020000 Ry

   izeta = 1
                 lambda =    1.000000
                     rc =    3.954440
                 energy =   -0.527442
                kinetic =    6.210364
    potential(screened) =   -6.737807
       potential(ionic) =  -18.733043

   izeta = 2
                 rmatch =    2.490121
              splitnorm =    0.150000
                 energy =   -0.148928
                kinetic =    8.576261
    potential(screened) =   -8.725189
       potential(ionic) =  -21.658221

POLgen: Perturbative polarization orbital with L=  1

POLgen: Polarization orbital for state 5s

   izeta = 1
                     rc =    6.684855
                 energy =   -0.001728
                kinetic =    0.597115
    potential(screened) =   -0.598843
       potential(ionic) =   -7.554613
atom: Total number of Sankey-type orbitals: 15

atm_pop: Valence configuration (for local Pseudopot. screening):
 5s( 1.00)                                                            
 5p( 0.00)                                                            
 4d(10.00)                                                            
Vna: chval, zval:   11.00000  11.00000

Vna:  Cut-off radius for the neutral-atom potential:   6.684855

atom: _________________________________________________________________________

prinput: Basis input ----------------------------------------------------------

PAO.BasisType split     

%block ChemicalSpeciesLabel
    1   47 Ag                      # Species index, atomic number, species label
%endblock ChemicalSpeciesLabel

%block PAO.Basis                 # Define Basis set
Ag                    2                    # Species label, number of l-shells
 n=5   0   2 P   1                   # n, l, Nzeta, Polarization, NzetaPol
   6.685      6.280   
   1.000      1.000   
 n=4   2   2                         # n, l, Nzeta 
   3.954      2.490   
   1.000      1.000   
%endblock PAO.Basis

prinput: ----------------------------------------------------------------------

Dumping basis to NetCDF file Ag.ion.nc
coor:   Atomic-coordinates input format  =     Cartesian coordinates
coor:                                          (in Angstroms)

siesta: WARNING: XV file not found

siesta: Atomic coordinates (Bohr) and species
siesta:     18.97286  32.99463   8.82502  1        1
siesta:     24.43228  32.99463   8.82502  1        2
siesta:     13.51344  32.99463   8.82502  1        3
siesta:     21.70351  37.72273   8.82502  1        4
siesta:     21.70351  28.26653   8.82502  1        5
siesta:     16.24220  37.72273   8.82502  1        6
siesta:     16.24220  28.26653   8.82502  1        7
siesta:     18.97286  36.14670  13.28289  1        8
siesta:     18.97286  26.69050  13.28289  1        9
siesta:     21.70351  31.41860  13.28289  1       10
siesta:     16.24220  31.41860  13.28289  1       11
siesta:     24.43228  36.14670  13.28289  1       12
siesta:     13.51344  36.14670  13.28289  1       13
siesta:     21.70351  23.23230  24.35480  1       14
siesta:     16.24220  23.23230  24.35480  1       15
siesta:     18.97286  18.50421  24.35480  1       16
siesta:     18.97286  27.96040  24.35480  1       17
siesta:     13.51344  18.50421  24.35480  1       18
siesta:     24.43228  18.50421  24.35480  1       19
siesta:     24.43228  21.65627  28.81267  1       20
siesta:     13.51344  21.65627  28.81267  1       21
siesta:     21.70351  26.38437  28.81267  1       22
siesta:     21.70351  16.92817  28.81267  1       23
siesta:     16.24220  26.38437  28.81267  1       24
siesta:     16.24220  16.92817  28.81267  1       25
siesta:     18.97286  21.65627  28.81267  1       26
siesta:     18.97286  24.80833  33.27053  1       27
siesta:     18.97286  15.35214  33.27053  1       28
siesta:     21.70351  20.08024  33.27053  1       29
siesta:     16.24220  20.08024  33.27053  1       30
siesta:     24.43228  24.80833  33.27053  1       31
siesta:     13.51344  24.80833  33.27053  1       32

siesta: System type = molecule  

initatomlists: Number of atoms, orbitals, and projectors:     32   480   512

siesta: ******************** Simulation parameters ****************************
siesta:
siesta: The following are some of the parameters of the simulation.
siesta: A complete list of the parameters used, including default values,
siesta: can be found in file out.fdf
siesta:
redata: Non-Collinear-spin run           =     F
redata: SpinPolarized (Up/Down) run      =     F
redata: Number of spin components        =     1
redata: Long output                      =     F
redata: Number of Atomic Species         =        1
redata: Charge density info will appear in .RHO file
redata: Write Mulliken Pop.              =     Atomic and Orbital charges
redata: Mesh Cutoff                      =   500.0000  Ry
redata: Net charge of the system         =     0.0000 |e|
redata: Max. number of SCF Iter          =      200
redata: Performing Pulay mixing using    =     7 iterations
redata: Mix DM in first SCF step ?       =     F
redata: Write Pulay info on disk?        =     F
redata: Discard 1st Pulay DM after  kick =     F
redata: New DM Mixing Weight             =     0.1000
redata: New DM Occupancy tolerance       = 0.000000000001
redata: No kicks to SCF
redata: DM Mixing Weight for Kicks       =     0.5000
redata: DM Tolerance for SCF             =     0.000100
redata: Require Energy convergence for SCF =     F
redata: DM Energy tolerance for SCF      =     0.000100 eV
redata: Require Harris convergence for SCF =     F
redata: DM Harris energy tolerance for SCF =     0.000100 eV
redata: Using Saved Data (generic)   =     T
redata: Use continuation files for DM    =     T
redata: Neglect nonoverlap interactions  =     F
redata: Method of Calculation            =     Diagonalization
redata: Divide and Conquer               =     T
redata: Electronic Temperature           =     0.0019  Ry
redata: Fix the spin of the system       =     F
redata: Dynamics option                  =     CG coord. optimization
redata: Variable cell                    =     F
redata: Use continuation files for CG    =     T
redata: Max atomic displ per move        =     0.2000  Bohr
redata: Maximum number of CG moves       =        0
redata: Force tolerance                  =     0.0016  Ry/Bohr
redata: ***********************************************************************
Total number of electrons:   352.000000
Total ionic charge:   352.000000

* ProcessorY, Blocksize:    8   8

 Kpoints in:            1 . Kpoints trimmed:            1

siesta: k-grid: Number of k-points =     1
siesta: k-grid: Cutoff (effective) =    11.267 Ang
siesta: k-grid: Supercell and displacements
siesta: k-grid:    1   0   0      0.000
siesta: k-grid:    0   1   0      0.000
siesta: k-grid:    0   0   1      0.000

* Maximum dynamic memory allocated =     1 MB

siesta:                 ==============================
                            Begin CG move =      0
                        ==============================

outcell: Unit cell vectors (Ang):
       22.534000    0.000000    0.000000
        0.000000   24.472000    0.000000
        0.000000    0.000000   23.649000

outcell: Cell vector modules (Ang)   :   22.534000   24.472000   23.649000
outcell: Cell angles (23,13,12) (deg):     90.0000     90.0000     90.0000
outcell: Cell volume (Ang**3)        :  13041.2895
New_DM. Step:     1
Initializing Density Matrix...

InitMesh: MESH =   320 x   360 x   320 =    36864000
InitMesh: Mesh cutoff (required, used) =   500.000   506.030 Ry

* Maximum dynamic memory allocated =    80 MB

stepf: Fermi-Dirac step function

siesta: Program's energy decomposition (eV):
siesta: Ebs     =     -1317.507351
siesta: Eions   =     35531.607510
siesta: Ena     =       314.489246
siesta: Ekin    =     27181.985408
siesta: Enl     =    -18115.277726
siesta: DEna    =        -0.000262
siesta: DUscf   =         0.000000
siesta: DUext   =         0.000000
siesta: Exc     =     -5190.370858
siesta: eta*DQ  =         0.000000
siesta: Emadel  =         0.000000
siesta: Emeta   =         0.000000
siesta: Emolmec =         0.000000
siesta: Ekinion =         0.000000
siesta: Eharris =    -31462.633879
siesta: Etot    =    -31340.781702
siesta: FreeEng =    -31340.781702

siesta: iscf   Eharris(eV)      E_KS(eV)   FreeEng(eV)   dDmax  Ef(eV)
siesta:    1   -31462.6339   -31340.7817   -31340.7817  0.6925 -1.5524
timer: Routine,Calls,Time,% = IterSCF        1     767.763  89.32
elaps: Routine,Calls,Wall,% = IterSCF        1      12.002  89.83
siesta:    2   -31496.8728   -31377.8900   -31377.9376  0.8637 -4.5355
siesta:    3   -31430.9125   -31384.3295   -31384.4208  0.4862 -3.4382
siesta:    4   -31429.4583   -31387.0234   -31387.0749  0.4700 -3.2491
siesta:    5   -31428.7238   -31390.2401   -31390.2581  0.3442 -3.1066
siesta:    6   -31429.3473   -31417.9462   -31417.9820  0.1048 -2.6240
siesta:    7   -31428.2073   -31423.1596   -31423.1693  0.0398 -2.8170
siesta:    8   -31428.1461   -31425.9588   -31426.0352  0.0372 -2.8126
siesta:    9   -31428.1548   -31426.6078   -31426.6817  0.0423 -2.8157
siesta:   10   -31428.1260   -31426.9798   -31427.0403  0.0082 -2.8099
siesta:   11   -31428.1251   -31427.2970   -31427.3715  0.0092 -2.8052
siesta:   12   -31428.1261   -31427.7850   -31427.8598  0.0043 -2.8016
siesta:   13   -31428.1249   -31427.9676   -31428.0411  0.0038 -2.8016
siesta:   14   -31428.1252   -31428.0574   -31428.1319  0.0007 -2.8015
siesta:   15   -31428.1250   -31428.0927   -31428.1668  0.0013 -2.8009
siesta:   16   -31428.1251   -31428.1096   -31428.1839  0.0005 -2.8004
siesta:   17   -31428.1251   -31428.1062   -31428.1804  0.0004 -2.8004
siesta:   18   -31428.1251   -31428.1153   -31428.1895  0.0002 -2.8004
siesta:   19   -31428.1251   -31428.1233   -31428.1975  0.0002 -2.8003
siesta:   20   -31428.1251   -31428.1255   -31428.1997  0.0001 -2.8003

siesta: E_KS(eV) =           -31428.1254

siesta: E_KS - E_eggbox =    -31428.1254

siesta: Atomic forces (eV/Ang):
----------------------------------------
   Tot    0.007575   -0.006850   -0.000240
----------------------------------------
   Max    1.315754
   Res    0.625453    sqrt( Sum f_i^2 / 3N )
----------------------------------------
   Max    1.315754    constrained

Stress-tensor-Voigt (kbar):        4.17        4.15        3.93        0.00        0.00        0.00
(Free)E + p*V (eV/cell)   -31461.4223
Target enthalpy (eV/cell)   -31428.1996
 
mulliken: Atomic and Orbital Populations:

Species: Ag                  
Atom  Qatom  Qorb
               5s      5s      4dxy    4dyz    4dz2    4dxz    4dx2-y2 4dxy    
               4dyz    4dz2    4dxz    4dx2-y2 5Ppy    5Ppz    5Ppx    
   1 11.077   0.406   0.412   1.869   1.907   1.896   1.907   1.869   0.033
              0.015   0.025   0.014   0.033   0.248   0.194   0.249
   2 10.985   0.649   0.280   1.942   1.943   1.926   1.973   1.910  -0.003
             -0.006  -0.003  -0.016   0.000   0.182   0.102   0.108
   3 10.985   0.649   0.280   1.942   1.943   1.926   1.973   1.910  -0.003
             -0.006  -0.003  -0.016   0.000   0.182   0.102   0.108
   4 10.985   0.648   0.279   1.918   1.986   1.926   1.929   1.933  -0.001
             -0.020  -0.003  -0.002  -0.002   0.114   0.102   0.176
   5 10.984   0.647   0.280   1.917   1.944   1.926   1.971   1.934   0.000
             -0.007  -0.003  -0.015  -0.002   0.139   0.101   0.151
   6 10.985   0.648   0.279   1.918   1.986   1.926   1.929   1.933  -0.001
             -0.020  -0.003  -0.002  -0.002   0.114   0.102   0.176
   7 10.984   0.647   0.280   1.917   1.944   1.926   1.971   1.934   0.000
             -0.007  -0.003  -0.015  -0.002   0.139   0.101   0.151
   8 10.997   0.453   0.347   1.900   1.926   1.922   1.914   1.886   0.013
              0.010   0.014   0.009   0.022   0.177   0.169   0.238
   9 10.987   0.784   0.233   1.924   1.991   1.939   1.942   1.984  -0.007
             -0.026  -0.015  -0.011  -0.025   0.086   0.081   0.107
  10 10.997   0.453   0.346   1.889   1.917   1.922   1.923   1.896   0.020
              0.009   0.014   0.009   0.015   0.222   0.169   0.192
  11 10.997   0.453   0.346   1.889   1.917   1.922   1.923   1.896   0.020
              0.009   0.014   0.009   0.015   0.222   0.169   0.192
  12 10.994   0.789   0.233   1.970   1.955   1.939   1.979   1.940  -0.021
             -0.015  -0.016  -0.022  -0.012   0.103   0.081   0.092
  13 10.994   0.789   0.233   1.970   1.955   1.939   1.979   1.940  -0.021
             -0.015  -0.016  -0.022  -0.012   0.103   0.081   0.092
  14 11.047   0.540   0.360   1.882   1.914   1.907   1.915   1.893   0.021
              0.011   0.015   0.011   0.017   0.206   0.163   0.191
  15 11.047   0.540   0.360   1.882   1.914   1.907   1.915   1.893   0.021
              0.011   0.015   0.011   0.017   0.206   0.163   0.191
  16 11.046   0.538   0.362   1.898   1.916   1.907   1.913   1.877   0.015
              0.012   0.015   0.011   0.023   0.184   0.162   0.214
  17 10.907   0.645   0.251   1.931   1.991   1.954   1.937   1.987  -0.008
             -0.025  -0.015  -0.010  -0.024   0.084   0.099   0.111
  18 10.904   0.639   0.254   1.973   1.950   1.954   1.977   1.945  -0.020
             -0.014  -0.014  -0.021  -0.012   0.104   0.098   0.091
  19 10.904   0.639   0.254   1.973   1.950   1.954   1.977   1.945  -0.020
             -0.014  -0.014  -0.021  -0.012   0.104   0.098   0.091
  20 11.045   0.536   0.363   1.925   1.877   1.879   1.927   1.902   0.010
              0.023   0.020   0.008   0.014   0.209   0.211   0.140
  21 11.045   0.536   0.363   1.925   1.877   1.879   1.927   1.902   0.010
              0.023   0.020   0.008   0.014   0.209   0.211   0.140
  22 11.045   0.537   0.363   1.908   1.914   1.879   1.889   1.920   0.013
              0.012   0.020   0.020   0.011   0.157   0.211   0.192
  23 11.045   0.537   0.363   1.908   1.914   1.879   1.889   1.920   0.013
              0.012   0.020   0.020   0.011   0.157   0.211   0.191
  24 11.045   0.537   0.363   1.908   1.914   1.879   1.889   1.920   0.013
              0.012   0.020   0.020   0.011   0.157   0.211   0.192
  25 11.045   0.537   0.363   1.908   1.914   1.879   1.889   1.920   0.013
              0.012   0.020   0.020   0.011   0.157   0.211   0.191
  26 11.078   0.173   0.548   1.887   1.892   1.881   1.892   1.887   0.029
              0.028   0.030   0.028   0.029   0.258   0.258   0.259
  27 11.045   0.537   0.362   1.898   1.916   1.907   1.913   1.877   0.015
              0.012   0.015   0.011   0.023   0.184   0.162   0.214
  28 10.903   0.638   0.255   1.931   1.991   1.954   1.937   1.987  -0.008
             -0.025  -0.014  -0.010  -0.024   0.084   0.097   0.111
  29 11.045   0.537   0.362   1.882   1.914   1.907   1.915   1.893   0.021
              0.011   0.015   0.012   0.017   0.206   0.162   0.191
  30 11.045   0.537   0.362   1.882   1.914   1.907   1.915   1.893   0.021
              0.011   0.015   0.012   0.017   0.206   0.162   0.191
  31 10.904   0.639   0.254   1.973   1.950   1.954   1.977   1.945  -0.020
             -0.014  -0.014  -0.021  -0.012   0.104   0.098   0.091
  32 10.904   0.639   0.254   1.973   1.950   1.954   1.977   1.945  -0.020
             -0.014  -0.014  -0.021  -0.012   0.104   0.098   0.091

mulliken: Qtot =      352.000

* Maximum dynamic memory allocated =    80 MB

siesta: Program's energy decomposition (eV):
siesta: Ebs     =     -2137.784677
siesta: Eions   =     35531.607510
siesta: Ena     =       314.489246
siesta: Ekin    =     25878.020723
siesta: Enl     =    -17203.450619
siesta: DEna    =       115.021420
siesta: DUscf   =        21.862602
siesta: DUext   =         0.000000
siesta: Exc     =     -5022.461242
siesta: eta*DQ  =         0.000000
siesta: Emadel  =         0.000000
siesta: Emeta   =         0.000000
siesta: Emolmec =         0.000000
siesta: Ekinion =         0.000000
siesta: Eharris =    -31428.125100
siesta: Etot    =    -31428.125381
siesta: FreeEng =    -31428.199582

siesta: Final energy (eV):
siesta:  Band Struct. =   -2137.784677
siesta:       Kinetic =   25878.020723
siesta:       Hartree =   81762.255873
siesta:    Ext. field =       0.000000
siesta:   Exch.-corr. =   -5022.461242
siesta:  Ion-electron = -185020.853674
siesta:       Ion-ion =   50974.912938
siesta:       Ekinion =       0.000000
siesta:         Total =  -31428.125381

siesta: Atomic forces (eV/Ang):
siesta:      1   -0.004764   -0.001128    0.211509
siesta:      2   -0.988758   -0.146147    0.862059
siesta:      3    0.985488   -0.147211    0.861476
siesta:      4   -0.627427   -0.781623    0.863385
siesta:      5   -0.373364    0.929279    0.858886
siesta:      6    0.635510   -0.781808    0.863223
siesta:      7    0.379255    0.929585    0.861879
siesta:      8   -0.002532   -0.373555   -0.851347
siesta:      9    0.001989    1.024745   -0.916990
siesta:     10   -0.329290    0.188643   -0.849726
siesta:     11    0.336346    0.191868   -0.848783
siesta:     12   -0.888474   -0.514732   -0.943716
siesta:     13    0.885047   -0.514670   -0.941995
siesta:     14   -0.263145   -0.144977    0.415746
siesta:     15    0.270863   -0.140341    0.415299
siesta:     16   -0.004634    0.298226    0.418012
siesta:     17   -0.002338   -1.315754    0.909646
siesta:     18    1.133248    0.655707    0.925700
siesta:     19   -1.135383    0.656282    0.926197
siesta:     20   -0.515533   -0.002257   -0.001476
siesta:     21    0.512734    0.002328    0.000204
siesta:     22   -0.264689   -0.448055    0.001661
siesta:     23   -0.262974    0.445811    0.001523
siesta:     24    0.270791   -0.449502    0.000341
siesta:     25    0.268916    0.446389    0.001932
siesta:     26   -0.006599    0.001055    0.000150
siesta:     27   -0.004886   -0.298910   -0.422374
siesta:     28   -0.000550    1.309485   -0.928850
siesta:     29   -0.261742    0.144515   -0.420049
siesta:     30    0.268414    0.145903   -0.419934
siesta:     31   -1.137588   -0.658210   -0.927119
siesta:     32    1.133646   -0.657787   -0.926708
siesta: ----------------------------------------
siesta:    Tot    0.007575   -0.006850   -0.000240

siesta: Stress tensor (static) (eV/Ang**3):
siesta:     0.002604    0.000003    0.000001
siesta:     0.000003    0.002587   -0.000002
siesta:     0.000001   -0.000002    0.002451

siesta: Cell volume =      13041.289483 Ang**3

siesta: Pressure (static):
siesta:                Solid            Molecule  Units
siesta:          -0.00002775         -0.00000004  Ry/Bohr**3
siesta:          -0.00254750         -0.00000398  eV/Ang**3
siesta:          -4.08159229         -0.00637046  kBar
(Free)E+ p_basis*V_orbitals  =      -31405.329370
(Free)Eharris+ p_basis*V_orbitals  =      -31405.328938

siesta: Electric dipole (a.u.)  =   -0.000014    0.431756   -0.751995
siesta: Electric dipole (Debye) =   -0.000036    1.097414   -1.911383

Optical: Performing optical calculation: 

Optical: Polarization type       = polarized   
Optical: Minimum of energy range =   0.0001 Ry 
Optical: Maximum of energy range =   7.3498 Ry 
Optical: Gaussian broadening     =   0.0037 Ry 
Optical: Scissor operator        =   0.0000 Ry 
Optical: Number of bands         =      480
Optical: BZ mesh dimensions      =    1   1   1

Optical: electric field direction
Optical:      0.00000     0.00000     1.00000

Optical: Checking f-sum rule  0.369958
Optical: For insulators and closed shell systems
Optical: this number should be close to 1 if an enough
Optical: number of unoccupied bands have been included

* Maximum dynamic memory allocated : Node    0 =    68 MB
* Maximum dynamic memory allocated : Node    1 =    68 MB
* Maximum dynamic memory allocated : Node    2 =    68 MB
* Maximum dynamic memory allocated : Node    3 =    68 MB
* Maximum dynamic memory allocated : Node    4 =    68 MB
* Maximum dynamic memory allocated : Node    5 =    68 MB
* Maximum dynamic memory allocated : Node    6 =    68 MB
* Maximum dynamic memory allocated : Node    7 =    68 MB
* Maximum dynamic memory allocated : Node    8 =    68 MB
* Maximum dynamic memory allocated : Node    9 =    68 MB
* Maximum dynamic memory allocated : Node   10 =    68 MB
* Maximum dynamic memory allocated : Node   11 =    68 MB
* Maximum dynamic memory allocated : Node   12 =    68 MB
* Maximum dynamic memory allocated : Node   13 =    69 MB
* Maximum dynamic memory allocated : Node   14 =    68 MB
* Maximum dynamic memory allocated : Node   15 =    68 MB
* Maximum dynamic memory allocated : Node   16 =    68 MB
* Maximum dynamic memory allocated : Node   17 =    68 MB
* Maximum dynamic memory allocated : Node   18 =    68 MB
* Maximum dynamic memory allocated : Node   19 =    69 MB
* Maximum dynamic memory allocated : Node   20 =    73 MB
* Maximum dynamic memory allocated : Node   21 =    73 MB
* Maximum dynamic memory allocated : Node   22 =    70 MB
* Maximum dynamic memory allocated : Node   23 =    68 MB
* Maximum dynamic memory allocated : Node   24 =    68 MB
* Maximum dynamic memory allocated : Node   25 =    69 MB
* Maximum dynamic memory allocated : Node   26 =    69 MB
* Maximum dynamic memory allocated : Node   27 =    71 MB
* Maximum dynamic memory allocated : Node   28 =    79 MB
* Maximum dynamic memory allocated : Node   29 =    80 MB
* Maximum dynamic memory allocated : Node   30 =    73 MB
* Maximum dynamic memory allocated : Node   31 =    68 MB
* Maximum dynamic memory allocated : Node   32 =    68 MB
* Maximum dynamic memory allocated : Node   33 =    72 MB
* Maximum dynamic memory allocated : Node   34 =    71 MB
* Maximum dynamic memory allocated : Node   35 =    69 MB
* Maximum dynamic memory allocated : Node   36 =    74 MB
* Maximum dynamic memory allocated : Node   37 =    76 MB
* Maximum dynamic memory allocated : Node   38 =    71 MB
* Maximum dynamic memory allocated : Node   39 =    68 MB
* Maximum dynamic memory allocated : Node   40 =    69 MB
* Maximum dynamic memory allocated : Node   41 =    76 MB
* Maximum dynamic memory allocated : Node   42 =    75 MB
* Maximum dynamic memory allocated : Node   43 =    69 MB
* Maximum dynamic memory allocated : Node   44 =    69 MB
* Maximum dynamic memory allocated : Node   45 =    69 MB
* Maximum dynamic memory allocated : Node   46 =    68 MB
* Maximum dynamic memory allocated : Node   47 =    67 MB
* Maximum dynamic memory allocated : Node   48 =    69 MB
* Maximum dynamic memory allocated : Node   49 =    74 MB
* Maximum dynamic memory allocated : Node   50 =    74 MB
* Maximum dynamic memory allocated : Node   51 =    68 MB
* Maximum dynamic memory allocated : Node   52 =    68 MB
* Maximum dynamic memory allocated : Node   53 =    67 MB
* Maximum dynamic memory allocated : Node   54 =    67 MB
* Maximum dynamic memory allocated : Node   55 =    68 MB
* Maximum dynamic memory allocated : Node   56 =    68 MB
* Maximum dynamic memory allocated : Node   57 =    68 MB
* Maximum dynamic memory allocated : Node   58 =    68 MB
* Maximum dynamic memory allocated : Node   59 =    67 MB
* Maximum dynamic memory allocated : Node   60 =    66 MB
* Maximum dynamic memory allocated : Node   61 =    66 MB
* Maximum dynamic memory allocated : Node   62 =    66 MB
* Maximum dynamic memory allocated : Node   63 =    66 MB

* Maximum memory occured during redistribXY                   

timer: CPU execution times:
timer:  Routine       Calls   Time/call    Tot.time        %
timer:  siesta            1    9116.138    9116.138   100.00
timer:  Setup             1      63.620      63.620     0.70
timer:  bands             1       0.030       0.030     0.00
timer:  writewave         1       0.041       0.041     0.00
timer:  KSV_init          1       0.014       0.014     0.00
timer:  IterMD            1    8649.554    8649.554    94.88
timer:  hsparse           1       0.058       0.058     0.00
timer:  overlap           1      13.960      13.960     0.15
timer:  IterSCF          20     404.004    8080.090    88.63
timer:  kinefsm           2       6.597      13.193     0.14
timer:  nlefsm            2      24.958      49.916     0.55
timer:  DHSCF            21     364.872    7662.317    84.05
timer:  DHSCF1            1      49.456      49.456     0.54
timer:  DHSCF2            1     222.646     222.646     2.44
timer:  REORD           170       0.125      21.296     0.23
timer:  POISON           22      48.064    1057.408    11.60
timer:  DHSCF3           21     349.545    7340.439    80.52
timer:  rhoofd           21      17.773     373.234     4.09
timer:  cellXC           21      43.750     918.749    10.08
timer:  vmat             21     110.492    2320.328    25.45
timer:  MolMec            2       0.001       0.001     0.00
timer:  diagon           20      24.155     483.109     5.30
timer:  r-eigvec         20      23.608     472.150     5.18
timer:  r-buildHS        20       0.003       0.064     0.00
timer:  rdiag            21      25.785     541.493     5.94
timer:  rdiag1           21       0.652      13.687     0.15
timer:  rdiag2           21       5.218     109.569     1.20
timer:  rdiag3           21      16.518     346.884     3.81
timer:  rdiag4           21       0.445       9.348     0.10
timer:  r-buildD         20       0.524      10.470     0.11
timer:  DHSCF4            1      40.175      40.175     0.44
timer:  dfscf             1      36.949      36.949     0.41
timer:  overfsm           1       0.083       0.083     0.00
timer:  optical           1     378.866     378.866     4.16
timer:  phirphiopt        1     119.909     119.909     1.32
timer:  transrate         1     180.166     180.166     1.98
  

elaps: ELAPSED times:
elaps:  Routine       Calls   Time/call    Tot.time        %
elaps:  siesta            1     142.497     142.497   100.00
elaps:  Setup             1       0.874       0.874     0.61
elaps:  bands             1       0.000       0.000     0.00
elaps:  writewave         1       0.001       0.001     0.00
elaps:  KSV_init          1       0.000       0.000     0.00
elaps:  IterMD            1     135.306     135.306    94.95
elaps:  hsparse           1       0.001       0.001     0.00
elaps:  overlap           1       0.235       0.235     0.16
elaps:  IterSCF          20       6.319     126.373    88.68
elaps:  kinefsm           2       0.113       0.226     0.16
elaps:  nlefsm            2       0.402       0.803     0.56
elaps:  DHSCF            21       5.655     118.760    83.34
elaps:  DHSCF1            1       0.767       0.767     0.54
elaps:  DHSCF2            1       3.494       3.494     2.45
elaps:  REORD           170       0.001       0.245     0.17
elaps:  POISON           22       0.736      16.186    11.36
elaps:  DHSCF3           21       5.433     114.092    80.06
elaps:  rhoofd           21       0.029       0.607     0.43
elaps:  cellXC           21       0.693      14.551    10.21
elaps:  vmat             21       1.695      35.596    24.98
elaps:  MolMec            2       0.000       0.000     0.00
elaps:  diagon           20       0.414       8.290     5.82
elaps:  r-eigvec         20       0.406       8.121     5.70
elaps:  r-buildHS        20       0.000       0.001     0.00
elaps:  rdiag            21       0.428       8.992     6.31
elaps:  rdiag1           21       0.010       0.215     0.15
elaps:  rdiag2           21       0.082       1.715     1.20
elaps:  rdiag3           21       0.259       5.446     3.82
elaps:  rdiag4           21       0.007       0.146     0.10
elaps:  r-buildD         20       0.008       0.162     0.11
elaps:  DHSCF4            1       0.307       0.307     0.22
elaps:  dfscf             1       0.295       0.295     0.21
elaps:  overfsm           1       0.002       0.002     0.00
elaps:  optical           1       6.189       6.189     4.34
elaps:  phirphiopt        1       2.087       2.087     1.46
elaps:  transrate         1       2.816       2.816     1.98
  
>> End of run:  10-MAY-2012  17:34:24
