Siesta Version: siesta-2.0.2
Architecture  : x86_64-unknown-linux-gnu--unknown
Compiler flags: mpif90 -O3 -axSSE4.2,SSE4.1 -xSSSE3 -ip 
PARALLEL version

* Running on   64 nodes in parallel
>> Start of run:  10-MAY-2013  20:50:44

                           ***********************       
                           *  WELCOME TO SIESTA  *       
                           ***********************       

reinit: Reading from standard input
************************** Dump of input data file ****************************
SystemName      optical
SystemLabel     optical
NumberOfAtoms   1282
NumberOfSpecies 4
MD.TypeOfRun    CG
MD.NumCGsteps   0
MD.ConstantVolume  .true.
SolutionMethod  diagon
XC.functional   GGA
XC.authors      PBE
PAO.BasisSize   DZP
DM.NumberPulay  7
DM.MixingWeight 0.1
DirectPhi       .true.
SaveMemory      .true.
MeshCutoff      500 Ry
MaxSCFiterations 200
UseSaveData     .true.
WriteMullikenPop 1
PAO.EnergyShift 0.001 Ry
WriteDM.NetCDF .false.
WriteDMHS.NetCDF .false.
%block ExternalElectricField
  0.000 0.000 0.100 V/nm
%endblock ExternalElectricField
%block PolarizationGrids
  10   3   3
  3   10   3
  3    3  10
%endblock PolarizationGrids
%block ChemicalSpeciesLabel
 1   1   H
 2   6   C
 3   9   F
 4  47   Ag
%endblock ChemicalSpeciesLabel
LatticeConstant 1.0 Ang
%block LatticeParameters
  22.534   24.472   23.649   90.0 90.0 90.0
%endblock LatticeParameters
AtomicCoordinatesFormat Ang
%block AtomicCoordinatesAndAtomicSpecies < struct.coor
%endblock AtomicCoordinatesAndAtomicSpecies
************************** End of input data file *****************************

reinit: -----------------------------------------------------------------------
reinit: System Name: optical                                                    
reinit: -----------------------------------------------------------------------
reinit: System Label: optical                                                     
reinit: -----------------------------------------------------------------------

initatom: Reading input for the pseudopotentials and atomic orbitals ----------
 Species number:            1  Label: H Atomic number:           1
 Species number:            2  Label: C Atomic number:           6
 Species number:            3  Label: F Atomic number:           9
 Species number:            4  Label: Ag Atomic number:          47
Ground state valence configuration:   1s01
Reading pseudopotential information in formatted form from H.psf
Ground state valence configuration:   2s02  2p02
Reading pseudopotential information in formatted form from C.psf
Ground state valence configuration:   2s02  2p05
Reading pseudopotential information in formatted form from F.psf
Ground state valence configuration:   5s01  4d10
Reading pseudopotential information in formatted form from Ag.psf
For H, standard SIESTA heuristics set lmxkb to 2
 (one more than the basis l, including polarization orbitals).
Use PS.lmax or PS.KBprojectors blocks to override.
For C, standard SIESTA heuristics set lmxkb to 3
 (one more than the basis l, including polarization orbitals).
Use PS.lmax or PS.KBprojectors blocks to override.
For F, standard SIESTA heuristics set lmxkb to 3
 (one more than the basis l, including polarization orbitals).
Use PS.lmax or PS.KBprojectors blocks to override.
For Ag, standard SIESTA heuristics set lmxkb to 3
 (one more than the basis l, including polarization orbitals).
Use PS.lmax or PS.KBprojectors blocks to override.

<basis_specs>
===============================================================================
H                    Z=   1    Mass=  1.0100        Charge=  0.0000    
Lmxo=0 Lmxkb=2     BasisType=split      Semic=F
L=0  Nsemic=0  Cnfigmx=1
          n=1  nzeta=2  polorb=1
               vcte:    0.0000    
               rinn:    0.0000    
                rcs:    0.0000      0.0000    
            lambdas:    1.0000      1.0000    
-------------------------------------------------------------------------------
L=0  Nkbl=1  erefs: 0.17977+309
L=1  Nkbl=1  erefs: 0.17977+309
L=2  Nkbl=1  erefs: 0.17977+309
===============================================================================
</basis_specs>

atom: Called for H   (Z =   1)

read_vps: Pseudopotential generation method:
read_vps: ATM 3.2.2 Troullier-Martins                       

read_vps: Valence configuration (pseudopotential and basis set generation):
1s( 1.00) rc: 1.33
2p( 0.00) rc: 1.33
3d( 0.00) rc: 0.37
Total valence charge:    1.00000

xc_check: Exchange-correlation functional:
xc_check: GGA Perdew, Burke & Ernzerhof 1996
V l=0 = -2*Zval/r beyond r=  1.2656
V l=1 = -2*Zval/r beyond r=  1.2498
V l=2 = -2*Zval/r beyond r=  0.3563
All V_l potentials equal beyond r=  1.2656
This should be close to max(r_c) in ps generation
All pots = -2*Zval/r beyond r=  1.2656

VLOCAL1: 99.0% of the norm of Vloc inside     27.100 Ry
VLOCAL1: 99.9% of the norm of Vloc inside     61.762 Ry
atom: Maximum radius for 4*pi*r*r*local-pseudopot. charge    1.48935
atom: Maximum radius for r*vlocal+2*Zval:    1.24984
GHOST: No ghost state for L =  0
GHOST: No ghost state for L =  1
GHOST: No ghost state for L =  2

KBgen: Kleinman-Bylander projectors: 
   l= 0   rc=  1.398961   el= -0.477209   Ekb= -2.001853   kbcos= -0.352188
   l= 1   rc=  1.470814   el=  0.001006   Ekb= -0.423408   kbcos= -0.024395
   l= 2   rc=  1.489346   el=  0.001895   Ekb= -0.481957   kbcos= -0.001574

KBgen: Total number of  Kleinman-Bylander projectors:    9
atom: -------------------------------------------------------------------------

atom: SANKEY-TYPE ORBITALS:
atom: Selected multiple-zeta basis: split     

SPLIT: Orbitals with angular momentum L= 0

SPLIT: Basis orbitals for state 1s

SPLIT: PAO cut-off radius determined from an
SPLIT: energy shift=  0.001000 Ry

   izeta = 1
                 lambda =    1.000000
                     rc =    7.026209
                 energy =   -0.476258
                kinetic =    0.873901
    potential(screened) =   -1.350160
       potential(ionic) =   -1.868508

   izeta = 2
                 rmatch =    4.103729
              splitnorm =    0.150000
                 energy =   -0.388153
                kinetic =    1.411813
    potential(screened) =   -1.799966
       potential(ionic) =   -2.346436

POLgen: Perturbative polarization orbital with L=  1

POLgen: Polarization orbital for state 1s

   izeta = 1
                     rc =    7.026209
                 energy =    0.513491
                kinetic =    1.100165
    potential(screened) =   -0.586674
       potential(ionic) =   -1.048593
atom: Total number of Sankey-type orbitals:  5

atm_pop: Valence configuration(local Pseudopot. screening):
 1s( 1.00)                                                            
Vna: chval, zval:    1.00000   1.00000

Vna:  Cut-off radius for the neutral-atom potential:   7.026209

atom: _________________________________________________________________________

<basis_specs>
===============================================================================
C                    Z=   6    Mass=  12.010        Charge=  0.0000    
Lmxo=1 Lmxkb=3     BasisType=split      Semic=F
L=0  Nsemic=0  Cnfigmx=2
          n=1  nzeta=2  polorb=0
               vcte:    0.0000    
               rinn:    0.0000    
                rcs:    0.0000      0.0000    
            lambdas:    1.0000      1.0000    
L=1  Nsemic=0  Cnfigmx=2
          n=1  nzeta=2  polorb=1
               vcte:    0.0000    
               rinn:    0.0000    
                rcs:    0.0000      0.0000    
            lambdas:    1.0000      1.0000    
-------------------------------------------------------------------------------
L=0  Nkbl=1  erefs: 0.17977+309
L=1  Nkbl=1  erefs: 0.17977+309
L=2  Nkbl=1  erefs: 0.17977+309
L=3  Nkbl=1  erefs: 0.17977+309
===============================================================================
</basis_specs>

atom: Called for C   (Z =   6)

read_vps: Pseudopotential generation method:
read_vps: ATM 3.2.2 Troullier-Martins                       

read_vps: Valence configuration (pseudopotential and basis set generation):
2s( 2.00) rc: 1.56
2p( 2.00) rc: 1.56
3d( 0.00) rc: 1.56
4f( 0.00) rc: 1.56
Total valence charge:    4.00000

xc_check: Exchange-correlation functional:
xc_check: GGA Perdew, Burke & Ernzerhof 1996
V l=0 = -2*Zval/r beyond r=  1.5227
V l=1 = -2*Zval/r beyond r=  1.5227
V l=2 = -2*Zval/r beyond r=  1.5227
V l=3 = -2*Zval/r beyond r=  1.5227
All V_l potentials equal beyond r=  1.4851
This should be close to max(r_c) in ps generation
All pots = -2*Zval/r beyond r=  1.5227

VLOCAL1: 99.0% of the norm of Vloc inside     19.682 Ry
VLOCAL1: 99.9% of the norm of Vloc inside     44.856 Ry
atom: Maximum radius for 4*pi*r*r*local-pseudopot. charge    1.79142
atom: Maximum radius for r*vlocal+2*Zval:    1.54183
GHOST: No ghost state for L =  0
GHOST: No ghost state for L =  1
GHOST: No ghost state for L =  2
GHOST: No ghost state for L =  3

KBgen: Kleinman-Bylander projectors: 
   l= 0   rc=  1.661951   el= -1.010689   Ekb=  5.289847   kbcos=  0.316429
   l= 1   rc=  1.661951   el= -0.388490   Ekb= -4.102504   kbcos= -0.351025
   l= 2   rc=  1.747182   el=  0.001971   Ekb= -1.006005   kbcos= -0.008530
   l= 3   rc=  1.791422   el=  0.003065   Ekb= -0.421399   kbcos= -0.001072

KBgen: Total number of  Kleinman-Bylander projectors:   16
atom: -------------------------------------------------------------------------

atom: SANKEY-TYPE ORBITALS:
atom: Selected multiple-zeta basis: split     

SPLIT: Orbitals with angular momentum L= 0

SPLIT: Basis orbitals for state 2s

SPLIT: PAO cut-off radius determined from an
SPLIT: energy shift=  0.001000 Ry

   izeta = 1
                 lambda =    1.000000
                     rc =    5.801806
                 energy =   -1.009895
                kinetic =    0.828418
    potential(screened) =   -1.838313
       potential(ionic) =   -5.395016

   izeta = 2
                 rmatch =    3.475094
              splitnorm =    0.150000
                 energy =   -0.868818
                kinetic =    1.308521
    potential(screened) =   -2.177339
       potential(ionic) =   -5.999546

SPLIT: Orbitals with angular momentum L= 1

SPLIT: Basis orbitals for state 2p

SPLIT: PAO cut-off radius determined from an
SPLIT: energy shift=  0.001000 Ry

   izeta = 1
                 lambda =    1.000000
                     rc =    7.449784
                 energy =   -0.387666
                kinetic =    2.318076
    potential(screened) =   -2.705742
       potential(ionic) =   -6.097636

   izeta = 2
                 rmatch =    3.792903
              splitnorm =    0.150000
                 energy =   -0.276721
                kinetic =    3.399803
    potential(screened) =   -3.676524
       potential(ionic) =   -7.455899

POLgen: Perturbative polarization orbital with L=  2

POLgen: Polarization orbital for state 2p

   izeta = 1
                     rc =    7.449784
                 energy =    0.929908
                kinetic =    1.970732
    potential(screened) =   -1.040824
       potential(ionic) =   -3.695745
atom: Total number of Sankey-type orbitals: 13

atm_pop: Valence configuration(local Pseudopot. screening):
 2s( 2.00)                                                            
 2p( 2.00)                                                            
Vna: chval, zval:    4.00000   4.00000

Vna:  Cut-off radius for the neutral-atom potential:   7.449784

atom: _________________________________________________________________________

<basis_specs>
===============================================================================
F                    Z=   9    Mass=  19.000        Charge=  0.0000    
Lmxo=1 Lmxkb=3     BasisType=split      Semic=F
L=0  Nsemic=0  Cnfigmx=2
          n=1  nzeta=2  polorb=0
               vcte:    0.0000    
               rinn:    0.0000    
                rcs:    0.0000      0.0000    
            lambdas:    1.0000      1.0000    
L=1  Nsemic=0  Cnfigmx=2
          n=1  nzeta=2  polorb=1
               vcte:    0.0000    
               rinn:    0.0000    
                rcs:    0.0000      0.0000    
            lambdas:    1.0000      1.0000    
-------------------------------------------------------------------------------
L=0  Nkbl=1  erefs: 0.17977+309
L=1  Nkbl=1  erefs: 0.17977+309
L=2  Nkbl=1  erefs: 0.17977+309
L=3  Nkbl=1  erefs: 0.17977+309
===============================================================================
</basis_specs>

atom: Called for F   (Z =   9)

read_vps: Pseudopotential generation method:
read_vps: ATM 3.2.2 Troullier-Martins                       

read_vps: Valence configuration (pseudopotential and basis set generation):
2s( 2.00) rc: 1.41
2p( 5.00) rc: 1.41
3d( 0.00) rc: 1.41
4f( 0.00) rc: 1.41
Total valence charge:    7.00000

xc_check: Exchange-correlation functional:
xc_check: GGA Perdew, Burke & Ernzerhof 1996
V l=0 = -2*Zval/r beyond r=  1.3199
V l=1 = -2*Zval/r beyond r=  1.3199
V l=2 = -2*Zval/r beyond r=  1.3199
V l=3 = -2*Zval/r beyond r=  1.3199
All V_l potentials equal beyond r=  1.3199
This should be close to max(r_c) in ps generation
All pots = -2*Zval/r beyond r=  1.3199

VLOCAL1: 99.0% of the norm of Vloc inside     24.916 Ry
VLOCAL1: 99.9% of the norm of Vloc inside     56.784 Ry
atom: Maximum radius for 4*pi*r*r*local-pseudopot. charge    1.61221
atom: Maximum radius for r*vlocal+2*Zval:    1.38760
GHOST: No ghost state for L =  0
GHOST: No ghost state for L =  1
GHOST: No ghost state for L =  2
GHOST: No ghost state for L =  3

KBgen: Kleinman-Bylander projectors: 
   l= 0   rc=  1.495695   el= -2.197581   Ekb=  5.601452   kbcos=  0.238748
   l= 1   rc=  1.458760   el= -0.816694   Ekb= -9.171639   kbcos= -0.518972
   l= 2   rc=  1.552860   el=  0.001997   Ekb= -1.845583   kbcos= -0.004774
   l= 3   rc=  1.592177   el=  0.003102   Ekb= -0.701684   kbcos= -0.000616

KBgen: Total number of  Kleinman-Bylander projectors:   16
atom: -------------------------------------------------------------------------

atom: SANKEY-TYPE ORBITALS:
atom: Selected multiple-zeta basis: split     

SPLIT: Orbitals with angular momentum L= 0

SPLIT: Basis orbitals for state 2s

SPLIT: PAO cut-off radius determined from an
SPLIT: energy shift=  0.001000 Ry

   izeta = 1
                 lambda =    1.000000
                     rc =    4.066195
                 energy =   -2.196755
                kinetic =    1.966455
    potential(screened) =   -4.163210
       potential(ionic) =  -14.868929

   izeta = 2
                 rmatch =    2.259523
              splitnorm =    0.150000
                 energy =   -1.883468
                kinetic =    3.053766
    potential(screened) =   -4.937234
       potential(ionic) =  -16.545925

SPLIT: Orbitals with angular momentum L= 1

SPLIT: Basis orbitals for state 2p

SPLIT: PAO cut-off radius determined from an
SPLIT: energy shift=  0.001000 Ry

   izeta = 1
                 lambda =    1.000000
                     rc =    5.221176
                 energy =   -0.815825
                kinetic =    5.800203
    potential(screened) =   -6.616028
       potential(ionic) =  -16.867051

   izeta = 2
                 rmatch =    2.375385
              splitnorm =    0.150000
                 energy =   -0.513701
                kinetic =    8.562067
    potential(screened) =   -9.075768
       potential(ionic) =  -20.580843

POLgen: Perturbative polarization orbital with L=  2

POLgen: Polarization orbital for state 2p

   izeta = 1
                     rc =    5.221176
                 energy =    2.534714
                kinetic =    5.071044
    potential(screened) =   -2.536330
       potential(ionic) =  -10.352162
atom: Total number of Sankey-type orbitals: 13

atm_pop: Valence configuration(local Pseudopot. screening):
 2s( 2.00)                                                            
 2p( 5.00)                                                            
Vna: chval, zval:    7.00000   7.00000

Vna:  Cut-off radius for the neutral-atom potential:   5.221176

atom: _________________________________________________________________________

<basis_specs>
===============================================================================
Ag                   Z=  47    Mass=  107.87        Charge=  0.0000    
Lmxo=2 Lmxkb=3     BasisType=split      Semic=F
L=0  Nsemic=0  Cnfigmx=5
          n=1  nzeta=2  polorb=1
               vcte:    0.0000    
               rinn:    0.0000    
                rcs:    0.0000      0.0000    
            lambdas:    1.0000      1.0000    
L=1  Nsemic=0  Cnfigmx=5
L=2  Nsemic=0  Cnfigmx=4
          n=1  nzeta=2  polorb=0
               vcte:    0.0000    
               rinn:    0.0000    
                rcs:    0.0000      0.0000    
            lambdas:    1.0000      1.0000    
-------------------------------------------------------------------------------
L=0  Nkbl=1  erefs: 0.17977+309
L=1  Nkbl=1  erefs: 0.17977+309
L=2  Nkbl=1  erefs: 0.17977+309
L=3  Nkbl=1  erefs: 0.17977+309
===============================================================================
</basis_specs>

atom: Called for Ag  (Z =  47)

read_vps: Pseudopotential generation method:
read_vps: ATM 3.2.2 Troullier-Martins                       

read_vps: Valence configuration (pseudopotential and basis set generation):
5s( 1.00) rc: 2.52
5p( 0.00) rc: 2.72
4d(10.00) rc: 2.52
4f( 0.00) rc: 2.52
Total valence charge:   11.00000

xc_check: Exchange-correlation functional:
xc_check: GGA Perdew, Burke & Ernzerhof 1996
V l=0 = -2*Zval/r beyond r=  2.4592
V l=1 = -2*Zval/r beyond r=  2.6507
V l=2 = -2*Zval/r beyond r=  2.4592
V l=3 = -2*Zval/r beyond r=  2.4592
All V_l potentials equal beyond r=  2.6507
This should be close to max(r_c) in ps generation
All pots = -2*Zval/r beyond r=  2.6507

VLOCAL1: 99.0% of the norm of Vloc inside      6.178 Ry
VLOCAL1: 99.9% of the norm of Vloc inside     14.079 Ry
atom: Maximum radius for 4*pi*r*r*local-pseudopot. charge    3.19739
atom: Maximum radius for r*vlocal+2*Zval:    2.82168
GHOST: No ghost state for L =  0
GHOST: No ghost state for L =  1
GHOST: No ghost state for L =  2
GHOST: No ghost state for L =  3

KBgen: Kleinman-Bylander projectors: 
   l= 0   rc=  2.966357   el= -0.323666   Ekb=  3.565490   kbcos=  0.247453
   l= 1   rc=  3.003670   el= -0.054265   Ekb=  1.619308   kbcos=  0.223076
   l= 2   rc=  2.786631   el= -0.547066   Ekb= -7.840816   kbcos= -0.714112
   l= 3   rc=  3.079709   el=  0.002953   Ekb= -2.732950   kbcos= -0.012571

KBgen: Total number of  Kleinman-Bylander projectors:   16
atom: -------------------------------------------------------------------------

atom: SANKEY-TYPE ORBITALS:
atom: Selected multiple-zeta basis: split     

SPLIT: Orbitals with angular momentum L= 0

SPLIT: Basis orbitals for state 5s

SPLIT: PAO cut-off radius determined from an
SPLIT: energy shift=  0.001000 Ry

   izeta = 1
                 lambda =    1.000000
                     rc =    9.486283
                 energy =   -0.322725
                kinetic =    0.270535
    potential(screened) =   -0.593260
       potential(ionic) =   -7.743453

   izeta = 2
                 rmatch =    6.768941
              splitnorm =    0.150000
                 energy =   -0.277703
                kinetic =    0.444695
    potential(screened) =   -0.722398
       potential(ionic) =   -8.538416

SPLIT: Orbitals with angular momentum L= 2

SPLIT: Basis orbitals for state 4d

SPLIT: PAO cut-off radius determined from an
SPLIT: energy shift=  0.001000 Ry

   izeta = 1
                 lambda =    1.000000
                     rc =    5.899358
                 energy =   -0.546288
                kinetic =    5.940648
    potential(screened) =   -6.486936
       potential(ionic) =  -18.280755

   izeta = 2
                 rmatch =    2.650723
              splitnorm =    0.150000
                 energy =   -0.238526
                kinetic =    8.222011
    potential(screened) =   -8.460537
       potential(ionic) =  -21.296963

POLgen: Perturbative polarization orbital with L=  1

POLgen: Polarization orbital for state 5s

   izeta = 1
                     rc =    9.486283
                 energy =   -0.053026
                kinetic =    0.478302
    potential(screened) =   -0.531328
       potential(ionic) =   -7.012902
atom: Total number of Sankey-type orbitals: 15

atm_pop: Valence configuration(local Pseudopot. screening):
 5s( 1.00)                                                            
 5p( 0.00)                                                            
 4d(10.00)                                                            
Vna: chval, zval:   11.00000  11.00000

Vna:  Cut-off radius for the neutral-atom potential:   9.486283

atom: _________________________________________________________________________

prinput: Basis input ----------------------------------------------------------

PAO.BasisType split     

%block ChemicalSpeciesLabel
    1    1 H                       # Species index, atomic number, species label
    2    6 C                       # Species index, atomic number, species label
    3    9 F                       # Species index, atomic number, species label
    4   47 Ag                      # Species index, atomic number, species label
%endblock ChemicalSpeciesLabel

%block PAO.Basis                 # Define Basis set
H           1                    # Species label, number of l-shells
 n=1   0   2 P   1                   # n, l, Nzeta, Polarization, NzetaPol
   7.026      4.104   
   1.000      1.000   
C           2                    # Species label, number of l-shells
 n=2   0   2                         # n, l, Nzeta 
   5.802      3.475   
   1.000      1.000   
 n=2   1   2 P   1                   # n, l, Nzeta, Polarization, NzetaPol
   7.450      3.793   
   1.000      1.000   
F           2                    # Species label, number of l-shells
 n=2   0   2                         # n, l, Nzeta 
   4.066      2.260   
   1.000      1.000   
 n=2   1   2 P   1                   # n, l, Nzeta, Polarization, NzetaPol
   5.221      2.375   
   1.000      1.000   
Ag          2                    # Species label, number of l-shells
 n=5   0   2 P   1                   # n, l, Nzeta, Polarization, NzetaPol
   9.486      6.769   
   1.000      1.000   
 n=4   2   2                         # n, l, Nzeta 
   5.899      2.651   
   1.000      1.000   
%endblock PAO.Basis

prinput: ----------------------------------------------------------------------


siesta: ******************** Simulation parameters ****************************
siesta:
siesta: The following are some of the parameters of the simulation.
siesta: A complete list of the parameters used, including default values,
siesta: can be found in file out.fdf
siesta:
coor:   Atomic-coordinates input format  =     Cartesian coordinates
coor:                                          (in Angstroms)
redata: SpinPolarized run                =     F
redata: Non-Collinear-spin run           =     F
redata: Number of spin components        =     1
redata: Long output                      =     F
redata: Number of Atomic Species         =     4
redata: Charge density info will appear in .RHO file
redata: Write Mulliken Pop.              =     Atomic and Orbital charges
redata: Mesh Cutoff                      =   500.0000  Ry
redata: Net charge of the system         =     0.0000 |e|
redata: Max. number of SCF Iter          =   200
redata: Performing Pulay mixing using    =     7 iterations
redata: Mix DM in first SCF step ?       =     F
redata: Write Pulay info on disk?        =     F
redata: New DM Mixing Weight             =     0.1000
redata: New DM Occupancy tolerance       = 0.000000000001
redata: No kicks to SCF
redata: DM Mixing Weight for Kicks       =     0.5000
redata: DM Tolerance for SCF             =     0.000100
redata: Require Energy convergence for SCF =     F
redata: DM Energy tolerance for SCF      =     0.000100 eV
redata: Using Saved Data (generic)   =     T
redata: Use continuation files for DM    =     T
redata: Neglect nonoverlap interactions  =     F
redata: Method of Calculation            =     Diagonalization
redata: Divide and Conquer               =     T
redata: Electronic Temperature           =     0.0019  Ry
redata: Fix the spin of the system       =     F
redata: Dynamics option                  =     CG coord. optimization
redata: Variable cell                    =     F
redata: Use continuation files for CG    =     T
redata: Max atomic displ per move        =     0.2000  Bohr
redata: Maximum number of CG moves       =     0
redata: Force tolerance                  =     0.0016  Ry/Bohr
redata: ***********************************************************************

siesta: WARNING: XV file not found

siesta: Atomic coordinates (Bohr) and species
siesta:     12.79534  30.91026  30.00319  2        1
siesta:     12.56479  29.94461  28.20039  1        2
siesta:     11.02089  31.75686  30.58145  1        3
siesta:     13.35659  29.55722  31.44128  1        4
siesta:     14.80979  32.99274  29.73863  2        5
siesta:     14.20697  34.34390  27.64292  3        6
siesta:     14.44129  34.61980  31.68316  3        7
siesta:     17.64249  32.31433  29.58934  2        8
siesta:     17.98453  30.82334  30.98963  1        9
siesta:     17.97319  31.51309  27.70907  1       10
siesta:     19.67017  34.41382  29.98241  2       11
siesta:     21.93973  33.42360  29.26620  3       12
siesta:     19.27899  36.24118  28.22685  3       13
siesta:     20.07835  35.75174  32.55810  2       14
siesta:     21.71863  36.97629  32.35401  1       15
siesta:     18.44373  36.95928  32.89070  1       16
siesta:     20.46007  34.15114  34.98262  2       17
siesta:     20.45251  35.74796  36.96495  3       18
siesta:     18.36626  32.72440  35.39269  3       19
siesta:     22.80522  32.43527  35.26230  2       20
siesta:     22.22508  30.59090  34.59145  1       21
siesta:     24.24331  33.15904  34.00564  1       22
siesta:     24.02788  32.09134  37.87769  2       23
siesta:     24.94062  34.37035  38.67326  3       24
siesta:     22.20618  31.50553  39.59734  3       25
siesta:     26.21618  30.21295  38.19516  2       26
siesta:     27.44639  30.37925  36.53787  1       27
siesta:     27.28010  30.86491  39.82599  1       28
siesta:     25.67572  27.37080  38.55232  2       29
siesta:     23.30978  26.89270  37.70383  3       30
siesta:     27.25931  26.11225  36.95361  3       31
siesta:     25.96863  26.20862  41.21116  2       32
siesta:     27.84702  26.82467  41.89713  1       33
siesta:     24.53432  27.11380  42.39035  1       34
siesta:     25.74564  23.30600  41.60990  2       35
siesta:     25.47541  22.96963  44.14591  3       36
siesta:     23.50820  22.52554  40.65180  3       37
siesta:     27.75820  21.43139  40.65180  2       38
siesta:     26.79633  19.61536  40.50441  1       39
siesta:     28.31567  21.99264  38.76964  1       40
siesta:     30.21106  20.91739  42.15603  2       41
siesta:     29.65926  19.05223  43.84355  3       42
siesta:     31.91938  19.80623  40.58188  3       43
siesta:     31.59245  23.03955  43.60545  2       44
siesta:     30.14303  24.05622  44.65236  1       45
siesta:     32.83400  22.14382  45.00196  1       46
siesta:     33.18549  24.98408  42.13902  2       47
siesta:     32.42204  24.90849  39.67482  3       48
siesta:     32.47685  27.31411  42.93082  3       49
siesta:     36.07867  24.91416  42.23729  2       50
siesta:     36.67393  23.27199  41.15825  1       51
siesta:     36.75141  26.58846  41.26597  1       52
siesta:     37.50730  24.83101  44.78842  2       53
siesta:     39.70505  26.13870  44.46527  3       54
siesta:     36.15614  26.12736  46.51563  3       55
siesta:     38.26130  22.27988  45.99406  2       56
siesta:     36.96873  20.83235  45.27030  1       57
siesta:     40.14158  21.84146  45.28730  1       58
siesta:     38.36146  21.89249  48.87590  2       59
siesta:     36.19772  22.84113  49.91903  3       60
siesta:     38.15359  19.33380  49.28219  3       61
siesta:     40.67637  22.83924  50.39713  2       62
siesta:     42.33744  21.95107  49.56187  1       63
siesta:     40.86345  24.86503  50.04186  1       64
siesta:     40.87101  22.46696  53.29597  2       65
siesta:     42.69460  20.71519  53.67391  3       66
siesta:     41.81777  24.67227  54.20493  3       67
siesta:     38.61279  21.70540  54.95326  2       68
siesta:     37.31644  23.29466  54.98160  1       69
siesta:     37.62257  20.15016  54.01784  1       70
siesta:     38.97562  20.91172  57.72738  2       71
siesta:     40.48740  22.67294  58.77618  3       72
siesta:     36.72117  21.23108  58.93302  3       73
siesta:     40.04520  18.31334  58.59665  2       74
siesta:     42.05965  18.65349  59.02751  1       75
siesta:     39.11357  17.87871  60.38244  1       76
siesta:     39.89024  15.85859  57.01306  2       77
siesta:     39.97150  16.43118  54.51484  3       78
siesta:     42.10311  14.63782  57.39290  3       79
siesta:     37.80777  13.86304  57.42880  2       80
siesta:     38.32366  12.24354  56.26851  1       81
siesta:     37.92304  13.23943  59.37144  1       82
siesta:     34.99774  14.41673  56.90346  2       83
siesta:     33.68627  12.44952  57.86533  3       84
siesta:     34.33823  16.41795  58.40012  3       85
siesta:     33.98863  14.97420  54.21626  2       86
siesta:     31.94583  15.04412  54.32965  1       87
siesta:     34.65003  16.86770  53.69848  1       88
siesta:     34.65948  13.22620  51.98828  2       89
siesta:     36.98762  13.83280  51.15113  3       90
siesta:     34.86735  10.80357  52.84999  3       91
siesta:     32.87369  13.17896  49.69982  2       92
siesta:     31.27498  11.98465  50.17792  1       93
siesta:     32.16504  15.09136  49.42014  1       94
siesta:     33.83745  12.29645  47.09199  2       95
siesta:     31.71718  11.78623  45.67092  3       96
siesta:     34.88436  14.31468  45.92981  3       97
siesta:     35.65348  10.02311  46.81609  2       98
siesta:     36.93093  10.49554  45.28730  1       99
siesta:     36.78542   9.94941  48.53763  1      100
siesta:     34.69350   7.28868  46.33232  2      101
siesta:     33.31400   7.35671  44.17992  3      102
siesta:     36.75330   5.89595  45.70304  3      103
siesta:     33.26486   5.72209  48.33921  2      104
siesta:     33.91304   3.76434  48.15969  1      105
siesta:     33.86013   6.35137  50.19115  1      106
siesta:     30.37358   5.66162  48.32221  2      107
siesta:     29.65548   4.27456  50.35177  3      108
siesta:     29.59501   8.04268  48.78708  3      109
siesta:     28.91282   4.68274  45.97517  2      110
siesta:     28.37425   6.36460  44.89802  1      111
siesta:     30.26776   3.61883  44.82810  1      112
siesta:     26.52988   3.02356  46.19626  2      113
siesta:     24.67983   4.45976  47.31498  3      114
siesta:     25.70029   2.59837  43.79442  3      115
siesta:     26.52988   0.42519  47.54742  2      116
siesta:     26.61491   0.73510  49.57321  1      117
siesta:     24.69684  -0.47054  47.17136  1      118
siesta:     28.63692  -1.50800  46.98428  2      119
siesta:     30.94428  -0.45542  47.46805  3      120
siesta:     28.43850  -3.36371  48.71149  3      121
siesta:     28.76731  -2.79113  44.36701  2      122
siesta:     28.82778  -4.83392  44.73928  1      123
siesta:     26.98530  -2.39050  43.41270  1      124
siesta:     30.89137  -2.24689  42.47539  2      125
siesta:     30.40382  -3.71709  40.38724  3      126
siesta:     30.72696   0.17952  41.62690  3      127
siesta:     33.67493  -2.71743  43.20105  2      128
siesta:     34.45728  -0.89384  43.78308  1      129
siesta:     33.67115  -3.92118  44.85456  1      130
siesta:     35.57222  -3.85315  41.25274  2      131
siesta:     35.36057  -2.50956  39.07199  3      132
siesta:     37.96083  -3.31458  42.02186  3      133
siesta:     35.44939  -6.67641  40.50819  2      134
siesta:     33.93194  -6.90884  39.17215  1      135
siesta:     37.21817  -7.12238  39.50474  1      136
siesta:     35.06010  -8.70408  42.56421  2      137
siesta:     36.46417  -8.04457  44.61078  3      138
siesta:     32.62991  -8.58125  43.40325  3      139
siesta:     35.57789 -11.50466  41.96139  2      140
siesta:     33.77320 -12.38338  41.50974  1      141
siesta:     36.76464 -11.57647  40.29276  1      142
siesta:     36.88369 -13.17896  43.96072  2      143
siesta:     37.32966 -15.43907  42.80609  3      144
siesta:     39.23829 -12.23409  44.44638  3      145
siesta:     35.52120 -13.71186  46.47405  2      146
siesta:     34.25319 -12.11693  46.81042  1      147
siesta:     34.34390 -15.37860  46.11878  1      148
siesta:     37.04432 -14.16917  48.92881  2      149
siesta:     38.94160 -15.82079  48.41291  3      150
siesta:     38.25374 -11.98276  49.58832  3      151
siesta:     35.63269 -15.16695  51.30797  2      152
siesta:     34.74074 -13.54178  52.18292  1      153
siesta:     34.17004 -16.43495  50.65791  1      154
siesta:     37.10668 -16.60314  53.36211  2      155
siesta:     35.60245 -16.81479  55.44648  3      156
siesta:     37.32778 -19.04467  52.60244  3      157
siesta:     39.71828 -15.67717  54.28051  2      158
siesta:     40.45149 -17.14549  55.54285  1      159
siesta:     40.98440 -15.59025  52.66480  1      160
siesta:     40.00363 -13.15439  55.71860  2      161
siesta:     37.99296 -11.62938  55.19514  3      162
siesta:     39.78064 -13.69485  58.23004  3      163
siesta:     42.40169 -11.57647  55.29341  2      164
siesta:     43.95883 -12.90494  55.49561  1      165
siesta:     42.40736 -10.90372  53.36022  1      166
siesta:     43.09144  -9.32013  56.99983  2      167
siesta:     42.44705  -9.82280  59.43569  3      168
siesta:     45.65013  -9.17840  57.08298  3      169
siesta:     42.03697  -6.67074  56.39134  2      170
siesta:     41.33022  -6.75388  54.46193  1      171
siesta:     40.41181  -6.35704  57.57431  1      172
siesta:     43.71505  -4.28401  56.53685  2      173
siesta:     45.14746  -4.23299  54.41846  3      174
siesta:     42.12579  -2.26767  56.33465  3      175
siesta:     45.46494  -3.78701  58.82720  2      176
siesta:     44.24040  -4.00811  60.47504  1      177
siesta:     46.87656  -5.25344  58.87066  1      178
siesta:     46.86523  -1.24533  59.13522  2      179
siesta:     46.58744   0.13984  56.97527  3      180
siesta:     45.56320   0.07559  60.92102  3      181
siesta:     49.65446  -1.27368  59.94214  2      182
siesta:     49.66769  -1.54013  61.97548  1      183
siesta:     50.58043  -2.91396  59.11255  1      184
siesta:     51.44781   1.02612  59.51128  2      185
siesta:     50.05131   3.10482  58.88200  3      186
siesta:     52.38701   1.61005  61.83186  3      187
siesta:     53.74194   0.94486  57.70848  2      188
siesta:     54.01973   2.85727  57.02062  1      189
siesta:     55.40112   0.49889  58.84798  1      190
siesta:     53.80430  -0.78235  55.38223  2      191
siesta:     55.63356   0.10960  53.82698  3      192
siesta:     54.67358  -3.07270  56.12489  3      193
siesta:     51.40057  -1.22832  53.77974  2      194
siesta:     50.29130  -2.74010  54.67547  1      195
siesta:     50.27051   0.50456  53.89879  1      196
siesta:     51.54797  -1.88973  50.94893  2      197
siesta:     49.35589  -3.10671  50.41224  3      198
siesta:     51.43837   0.29480  49.64313  3      199
siesta:     53.72682  -3.51489  49.85288  2      200
siesta:     55.52207  -2.57948  50.27618  1      201
siesta:     53.72871  -5.31580  50.88657  1      202
siesta:     53.77407  -4.17252  47.01829  2      203
siesta:     52.81031  -2.20720  45.68982  3      204
siesta:     56.21371  -4.19330  46.30398  3      205
siesta:     52.46827  -6.62916  46.06209  2      206
siesta:     50.44248  -6.41751  46.38524  1      207
siesta:     52.69503  -6.68963  44.01930  1      208
siesta:     53.22983  -9.23887  47.05798  2      209
siesta:     52.29819  -9.45808  49.45793  3      210
siesta:     51.90135 -10.94908  45.70115  3      211
siesta:     56.03229 -10.11760  47.06365  2      212
siesta:     56.51795 -10.70341  45.15124  1      213
siesta:     57.21148  -8.49621  47.51907  1      214
siesta:     56.90346 -12.24354  48.86078  2      215
siesta:     59.12766 -13.21297  47.92914  3      216
siesta:     57.47037 -11.10970  51.07932  3      217
siesta:     55.16869 -14.52255  49.46360  2      218
siesta:     53.20148 -13.87626  49.61856  1      219
siesta:     55.23861 -15.82268  47.87434  1      220
siesta:     55.68458 -16.11748  51.86166  2      221
siesta:     54.43925 -18.35492  51.60088  3      222
siesta:     58.19981 -16.71841  51.77852  3      223
siesta:     55.19514 -15.09703  54.57720  2      224
siesta:     56.00961 -16.51243  55.84710  1      225
siesta:     56.27229 -13.36415  54.77751  1      226
siesta:     52.50228 -14.55090  55.55041  2      227
siesta:     50.88279 -16.21197  54.41658  3      228
siesta:     52.44937 -15.22553  58.00706  3      229
siesta:     51.17191 -11.92229  55.41246  2      230
siesta:     50.43492 -11.71631  53.49439  1      231
siesta:     49.55998 -11.98465  56.70692  1      232
siesta:     52.58543  -9.41840  56.02473  2      233
siesta:     54.23894  -8.94975  54.11989  3      234
siesta:     50.87901  -7.51166  55.76962  3      235
siesta:     54.06887  -9.04045  58.53807  2      236
siesta:     55.44270 -10.54279  58.67602  1      237
siesta:     55.14790  -7.29435  58.36610  1      238
siesta:     52.63834  -8.95164  61.07219  2      239
siesta:     50.53697  -7.50788  60.78873  3      240
siesta:     51.71805 -11.30813  61.54840  3      241
siesta:     54.03296  -8.12772  63.50616  2      242
siesta:     52.60811  -8.01055  64.99338  1      243
siesta:     55.33687  -9.64706  64.01828  1      244
siesta:     55.45970  -5.59926  63.62143  2      245
siesta:     54.36933  -4.00244  61.94336  3      246
siesta:     54.90412  -4.55235  65.90422  3      247
siesta:     58.35855  -5.48021  63.30774  2      248
siesta:     59.19191  -6.10382  65.08030  1      249
siesta:     58.90846  -6.86160  61.86399  1      250
siesta:     59.70403  -3.00656  62.58964  2      251
siesta:     62.23060  -3.53190  62.54429  3      252
siesta:     59.10121  -2.47176  60.15001  3      253
siesta:     59.29585  -0.57259  64.15623  2      254
siesta:     60.05363   1.01289  63.06019  1      255
siesta:     57.25494  -0.30992  64.27906  1      256
siesta:     60.34843  -0.33070  66.86610  2      257
siesta:     60.24260  -2.62483  68.00749  3      258
siesta:     62.89011   0.09260  66.61476  3      259
siesta:     59.25617   1.67808  68.71236  2      260
siesta:     60.88700   2.68719  69.50793  1      261
siesta:     58.19036   3.01600  67.58986  1      262
siesta:     57.51573   0.84471  70.89688  2      263
siesta:     56.36299   2.98388  71.73781  3      264
siesta:     55.59199  -0.51590  69.87265  3      265
siesta:     58.55508  -0.51590  73.28172  2      266
siesta:     60.49205   0.16063  73.56707  1      267
siesta:     57.40612   0.14929  74.84263  1      268
siesta:     58.71192  -3.41663  73.52738  2      269
siesta:     60.99849  -4.17630  72.65244  3      270
siesta:     58.77429  -3.99110  76.03127  3      271
siesta:     56.74472  -5.23454  72.32741  2      272
siesta:     56.74094  -4.84715  70.29784  1      273
siesta:     57.50061  -7.14128  72.61653  1      274
siesta:     53.97816  -5.30635  73.21747  2      275
siesta:     53.55864  -3.22765  74.65933  3      276
siesta:     52.50417  -4.97376  71.13310  3      277
siesta:     52.98227  -7.60804  74.72547  2      278
siesta:     53.47360  -9.28801  73.66911  1      279
siesta:     54.08020  -7.71009  76.46969  1      280
siesta:     50.17603  -7.85559  75.43034  2      281
siesta:     49.00062  -8.90628  73.41778  3      282
siesta:     50.05320  -9.67729  77.29550  3      283
siesta:     48.64157  -5.52556  76.26749  2      284
siesta:     49.78485  -4.54290  77.63187  1      285
siesta:     48.46205  -4.28212  74.62531  1      286
siesta:     45.96005  -5.72776  77.39754  2      287
siesta:     44.43315  -4.46920  75.74214  3      288
siesta:     45.17203  -8.16929  77.24448  3      289
siesta:     45.39124  -4.69408  80.08285  2      290
siesta:     46.74806  -5.59359  81.35841  1      291
siesta:     45.75596  -2.66451  80.06773  1      292
siesta:     42.70972  -5.05880  81.15621  2      293
siesta:     42.30532  -7.58725  81.43778  3      294
siesta:     42.79664  -4.22165  83.61852  3      295
siesta:     40.40992  -3.76434  79.89765  2      296
siesta:     39.25530  -3.05380  81.45101  1      297
siesta:     41.10345  -2.09193  78.86397  1      298
siesta:     38.59956  -5.19675  78.08540  2      299
siesta:     38.51263  -7.67418  78.73736  3      300
siesta:     36.24118  -4.36527  78.61264  3      301
siesta:     38.89436  -5.08526  75.17334  2      302
siesta:     40.00174  -3.38828  74.76137  1      303
siesta:     40.02819  -6.71798  74.60831  1      304
siesta:     36.52842  -5.00967  73.44990  2      305
siesta:     37.35045  -5.46131  71.06129  3      306
siesta:     35.08656  -7.04868  73.97525  3      307
siesta:     34.79365  -2.66451  73.35731  2      308
siesta:     33.71084  -2.79680  71.59230  1      309
siesta:     33.46328  -2.82892  74.90121  1      310
siesta:     35.90481   0.03213  73.49148  2      311
siesta:     36.90637   0.48566  75.82340  3      312
siesta:     37.92493   0.06803  71.87576  3      313
siesta:     34.23996   2.32436  72.75637  2      314
siesta:     35.50041   3.97788  72.65622  1      315
siesta:     33.53887   1.96343  70.84397  1      316
siesta:     31.90048   3.07648  74.32296  2      317
siesta:     30.75153   4.93219  72.99070  3      318
siesta:     30.19595   1.13006  74.24737  3      319
siesta:     32.10646   4.09504  77.05550  2      320
siesta:     33.63903   5.47643  77.04605  1      321
siesta:     30.37169   5.16273  77.41833  1      322
siesta:     32.50519   2.37350  79.33640  2      323
siesta:     30.40004   2.54924  80.80283  3      324
siesta:     32.49385  -0.05102  78.55595  3      325
siesta:     34.79176   2.61349  81.12975  2      326
siesta:     34.20028   1.92752  82.96846  1      327
siesta:     36.23551   1.33982  80.42111  1      328
siesta:     36.00686   5.23643  81.57951  2      329
siesta:     37.54131   5.78067  79.59152  3      330
siesta:     34.13225   7.00711  81.48313  3      331
siesta:     37.56777   5.78823  84.00970  2      332
siesta:     38.75830   7.41718  83.58451  1      333
siesta:     36.25252   6.31358  85.49313  1      334
siesta:     39.31955   3.74355  85.13975  2      335
siesta:     37.85123   2.07114  86.40587  3      336
siesta:     40.27386   2.34704  83.21412  3      337
siesta:     41.45305   4.57692  86.95578  2      338
siesta:     41.60045   6.63294  86.87074  1      339
siesta:     40.82944   4.11205  88.88897  1      340
siesta:     44.14402   3.52434  86.68177  2      341
siesta:     45.32888   4.93030  84.87519  3      342
siesta:     45.35911   4.10071  88.87008  3      343
siesta:     44.57866   0.68597  86.09785  2      344
siesta:     42.81554  -0.30425  86.37564  1      345
siesta:     45.02652   0.56503  84.10040  1      346
siesta:     46.66114  -0.90140  87.40932  2      347
siesta:     47.17703  -2.91774  85.87108  3      348
siesta:     48.83243   0.48188  87.34696  3      349
siesta:     46.28319  -1.85382  90.13997  2      350
siesta:     48.08977  -2.54546  90.76925  1      351
siesta:     45.81454  -0.18897  91.32483  1      352
siesta:     44.32732  -3.93063  90.81460  2      353
siesta:     44.08166  -3.91173  93.36952  3      354
siesta:     42.00296  -3.15206  90.02092  3      355
siesta:     44.71283  -6.72554  89.97746  2      356
siesta:     43.08388  -7.19419  88.78504  1      357
siesta:     46.34933  -6.73877  88.73779  1      358
siesta:     44.96038  -8.92707  91.88230  2      359
siesta:     46.84822  -8.39606  93.52447  3      360
siesta:     42.87979  -8.99321  93.39219  3      361
siesta:     45.43470 -11.62560  90.90531  2      362
siesta:     43.73395 -12.10370  89.84140  1      363
siesta:     46.98239 -11.56324  89.56550  1      364
siesta:     45.99973 -13.88571  92.67599  2      365
siesta:     48.46771 -13.76666  93.36385  3      366
siesta:     44.63724 -13.59658  94.81138  3      367
siesta:     45.48384 -16.57101  91.61774  2      368
siesta:     43.43726 -16.69196  91.42310  1      369
siesta:     46.28130 -16.64660  89.69967  1      370
siesta:     46.35689 -18.95207  93.04070  2      371
siesta:     45.58777 -18.77444  95.49546  3      372
siesta:     45.00951 -20.94195  92.15631  3      373
siesta:     49.17258 -19.73064  93.01614  2      374
siesta:     50.14012 -18.38893  94.26147  1      375
siesta:     49.31053 -21.58635  93.90431  1      376
siesta:     50.66169 -19.83457  90.50658  2      377
siesta:     50.64846 -17.48564  89.46534  3      378
siesta:     53.18069 -20.21819  91.03948  3      379
siesta:     49.85288 -21.68651  88.42410  2      380
siesta:     47.81765 -21.89060  88.57528  1      381
siesta:     50.24595 -20.72652  86.64965  1      382
siesta:     50.94893 -24.39259  88.20111  2      383
siesta:     52.54953 -24.35291  86.18099  3      384
siesta:     52.51551 -24.85369  90.16454  3      385
siesta:     49.23116 -26.75286  87.83640  2      386
siesta:     48.56220 -26.71885  85.88431  1      387
siesta:     50.44437 -28.41960  88.02537  1      388
siesta:     46.86523 -27.20451  89.50691  2      389
siesta:     47.31120 -26.21240  91.84073  3      390
siesta:     44.97361 -25.74753  88.54315  3      391
siesta:     45.86556 -29.92194  89.78659  2      392
siesta:     45.51218 -30.61924  87.88364  1      393
siesta:     47.38490 -31.05010  90.63319  1      394
siesta:     43.45805 -30.44917  91.31916  2      395
siesta:     41.68360 -28.71629  90.61051  3      396
siesta:     42.48106 -32.68094  90.53492  3      397
siesta:     43.52041 -30.48885  94.24446  2      398
siesta:     44.61645 -28.83345  94.84728  1      399
siesta:     41.60045 -30.17138  94.91153  1      400
siesta:     44.61834 -32.74897  95.69010  2      401
siesta:     46.98995 -33.18360  94.78870  3      402
siesta:     45.09644 -31.95150  98.08627  3      403
siesta:     43.13491 -35.26986  95.96411  2      404
siesta:     43.51663 -35.93316  97.86518  1      405
siesta:     41.12802 -34.80877  95.91498  1      406
siesta:     43.56009 -37.52620  94.18777  2      407
siesta:     41.27919 -37.97973  93.01236  3      408
siesta:     45.10589 -36.88369  92.25080  3      409
siesta:     44.43882 -40.10945  95.21767  2      410
siesta:     43.20861 -40.56110  96.80882  1      411
siesta:     44.06465 -41.47006  93.72289  1      412
siesta:     47.17325 -40.58377  96.10962  2      413
siesta:     47.00318 -42.20138  98.09383  3      414
siesta:     48.29197 -41.92926  94.22556  3      415
siesta:     48.94393 -38.38602  96.85417  2      416
siesta:     49.28786 -37.29376  95.15720  1      417
siesta:     47.89891 -37.25219  98.22233  1      418
siesta:     51.55553 -38.86223  98.11840  2      419
siesta:     51.27396 -38.61468 100.65252  3      420
siesta:     52.19804 -41.32455  97.80848  3      421
siesta:     53.92903 -37.34856  97.33038  2      422
siesta:     55.38412 -37.85879  98.70421  1      423
siesta:     54.56397 -38.03831  95.48034  1      424
siesta:     53.90824 -34.42326  97.17354  2      425
siesta:     52.27929 -33.76186  95.27814  3      426
siesta:     52.87267 -33.52564  99.36184  3      427
siesta:     56.41402 -32.98707  96.68788  2      428
siesta:     56.74661 -31.77954  98.31304  1      429
siesta:     57.91446 -34.41760  96.61040  1      430
siesta:     56.75795 -31.33356  94.31627  2      431
siesta:     59.21837 -30.56066  94.24446  3      432
siesta:     56.61055 -32.92660  92.30182  3      433
siesta:     55.01940 -29.06022  93.66242  2      434
siesta:     55.73938 -28.19850  91.93710  1      435
siesta:     53.18069 -29.83879  93.21645  1      436
siesta:     54.56208 -26.86814  95.53892  2      437
siesta:     52.06764 -26.27854  95.29893  3      438
siesta:     54.71326 -27.80544  97.93887  3      439
siesta:     56.01717 -24.35102  95.44821  2      440
siesta:     55.41435 -23.37592  93.72667  1      441
siesta:     55.27829 -23.21529  97.01858  1      442
siesta:     58.90279 -24.30756  95.58616  2      443
siesta:     59.61710 -22.03988  96.56504  3      444
siesta:     59.56797 -26.00264  97.40786  3      445
siesta:     60.57708 -24.84991  93.28259  2      446
siesta:     62.24571 -25.87414  93.96478  1      447
siesta:     59.53774 -26.12547  92.04860  1      448
siesta:     61.58620 -22.66916  91.59695  2      449
siesta:     63.72537 -21.73375  92.69866  3      450
siesta:     62.40634 -23.77654  89.42377  3      451
siesta:     59.87600 -20.40149  90.89397  2      452
siesta:     57.97304 -21.14037  90.57083  1      453
siesta:     59.81364 -19.17317  92.56827  1      454
siesta:     60.57708 -18.70263  88.64142  2      455
siesta:     58.99727 -16.66739  88.66599  3      456
siesta:     62.89578 -17.68217  89.19511  3      457
siesta:     60.57142 -19.63237  85.86730  2      458
siesta:     61.09487 -18.01477  84.66732  1      459
siesta:     62.13233 -20.97030  85.64620  1      460
siesta:     58.18280 -20.84369  84.72024  2      461
siesta:     58.85365 -22.12303  82.60941  3      462
siesta:     57.48360 -22.71830  86.36241  3      463
siesta:     55.78663 -19.27521  84.15521  2      464
siesta:     54.35043 -20.59424  83.44656  1      465
siesta:     55.11388 -18.59302  85.96368  1      466
siesta:     55.88867 -17.02644  82.29005  2      467
siesta:     57.90501 -17.38738  80.71401  3      468
siesta:     53.81186 -17.31557  80.78204  3      469
siesta:     55.98127 -14.25421  83.17255  2      470
siesta:     57.85399 -13.87437  83.92088  1      471
siesta:     55.80363 -13.10148  81.46235  1      472
siesta:     54.08587 -13.20163  85.14164  2      473
siesta:     54.67925 -14.25799  87.42254  3      474
siesta:     54.61500 -10.69207  85.46857  3      475
siesta:     51.18703 -13.43785  84.80716  2      476
siesta:     50.85633 -15.09703  83.62986  1      477
siesta:     50.40846 -13.81201  86.65343  1      478
siesta:     49.62612 -11.21742  83.69222  2      479
siesta:     49.16313  -9.54312  85.59896  3      480
siesta:     51.12845  -9.94752  82.05761  3      481
siesta:     47.14680 -11.78623  82.30705  2      482
siesta:     46.63657 -10.07980  81.24503  1      483
siesta:     47.50395 -13.30935  80.97669  1      484
siesta:     44.78275 -12.55724  83.86419  2      485
siesta:     45.48195 -14.44318  85.47613  3      486
siesta:     44.12890 -10.53523  85.36085  3      487
siesta:     42.33366 -13.43596  82.55083  2      488
siesta:     40.81243 -13.20730  83.88687  1      489
siesta:     41.96894 -12.15472  80.98614  1      490
siesta:     42.10311 -16.12126  81.48313  2      491
siesta:     40.23229 -16.04000  79.73892  3      492
siesta:     44.21016 -16.60503  80.11875  3      493
siesta:     41.53242 -18.37003  83.27270  2      494
siesta:     41.09022 -17.55745  85.13031  1      495
siesta:     39.77875 -19.19207  82.51492  1      496
siesta:     43.43726 -20.54511  83.69978  2      497
siesta:     45.07943 -19.81379  85.54794  3      498
siesta:     42.11445 -22.42350  84.86574  3      499
siesta:     44.89613 -21.83768  81.49636  2      500
siesta:     44.63913 -23.85591  81.74014  1      501
siesta:     43.93048 -21.30100  79.75970  1      502
siesta:     47.76663 -21.40305  81.11464  2      503
siesta:     48.47338 -19.22986  82.30138  3      504
siesta:     48.93448 -23.24931  82.45067  3      505
siesta:     48.90802 -21.48242  78.42367  2      506
siesta:     50.88846 -21.94729  78.63720  1      507
siesta:     48.03875 -23.05656  77.41833  1      508
siesta:     48.86645 -19.17884  76.63220  2      509
siesta:     49.16124 -17.01321  77.98336  3      510
siesta:     50.99617 -19.38671  75.19412  3      511
siesta:     46.62145 -18.78766  74.81807  2      512
siesta:     46.62145 -20.35236  73.48959  1      513
siesta:     44.89235 -18.89727  75.93490  1      514
siesta:     46.46838 -16.31779  73.25904  2      515
siesta:     48.84755 -15.60914  72.57118  3      516
siesta:     45.32132 -16.92628  71.03672  3      517
siesta:     45.14369 -13.94618  74.34375  2      518
siesta:     45.56509 -13.87626  76.35064  1      519
siesta:     46.03942 -12.30212  73.47636  1      520
siesta:     42.25996 -13.56446  74.05651  2      521
siesta:     41.15825 -15.82079  74.58752  3      522
siesta:     41.44171 -11.99410  75.93867  3      523
siesta:     41.06377 -12.63660  71.54128  2      524
siesta:     40.75763 -14.29011  70.35264  1      525
siesta:     39.21939 -11.92796  72.02505  1      526
siesta:     42.33555 -10.56357  69.95013  2      527
siesta:     40.46850  -9.18596  68.82385  3      528
siesta:     43.42970  -8.92518  71.58852  3      529
siesta:     44.21394 -11.36482  67.84875  2      530
siesta:     44.61834 -13.34903  68.17001  1      531
siesta:     43.20483 -11.22498  66.07619  1      532
siesta:     46.75751 -10.04579  67.43490  2      533
siesta:     48.44126 -11.23443  68.97881  3      534
siesta:     47.53986 -10.63538  65.06708  3      535
siesta:     47.12979  -7.15829  67.75238  2      536
siesta:     46.81231  -6.68396  69.73848  1      537
siesta:     49.14802  -6.80302  67.36309  1      538
siesta:     45.62179  -5.31958  66.07241  2      539
siesta:     47.26774  -4.41629  64.34709  3      540
siesta:     43.94560  -6.64428  64.66456  3      541
siesta:     44.17992  -3.02923  67.17412  2      542
siesta:     43.59222  -1.85760  65.54140  1      543
siesta:     42.48295  -3.79457  68.06607  1      544
siesta:     45.36667  -1.21320  69.12999  2      545
siesta:     43.46939   0.37984  69.83486  3      546
siesta:     45.84288  -2.50956  71.30128  3      547
siesta:     47.71938   0.38172  68.50260  2      548
siesta:     48.91558   0.46487  70.16934  1      549
siesta:     48.77007  -0.72754  67.05885  1      550
siesta:     47.46616   3.12372  67.51427  2      551
siesta:     45.96383   3.04624  65.44124  3      552
siesta:     46.10367   4.53723  69.18668  3      553
siesta:     49.84344   4.67518  66.80185  2      554
siesta:     51.10955   3.37316  65.83242  1      555
siesta:     49.27841   6.09815  65.45447  1      556
siesta:     51.44781   5.98099  68.83519  2      557
siesta:     51.12656   4.66196  71.04239  3      558
siesta:     53.91769   5.56525  68.21914  3      559
siesta:     51.10388   8.80613  69.48148  2      560
siesta:     49.75840   9.64328  68.16434  1      561
siesta:     50.23839   8.85715  71.32207  1      562
siesta:     53.36400  10.62593  69.55329  2      563
siesta:     54.38634  10.59192  67.21192  3      564
siesta:     52.43992  13.03912  69.79328  3      565
siesta:     55.54663  10.34625  71.48081  2      566
siesta:     56.56142   8.61526  70.99515  1      567
siesta:     56.83354  11.93174  71.16711  1      568
siesta:     55.01373  10.27445  74.32296  2      569
siesta:     53.14290  11.95630  74.80862  3      570
siesta:     54.01217   7.96898  74.82752  3      571
siesta:     57.15290  10.77144  76.24859  2      572
siesta:     58.05052  12.56290  75.75348  1      573
siesta:     56.22126  11.04923  78.07218  1      574
siesta:     59.30341   8.80991  76.66055  2      575
siesta:     59.22971   8.07480  79.12853  3      576
siesta:     58.77995   6.66129  75.36798  3      577
siesta:     62.08131   9.49777  76.10686  2      578
siesta:     62.68035  10.93963  77.45235  1      579
siesta:     63.18680   7.80835  76.54150  1      580
siesta:     62.89956  10.38783  73.42534  2      581
siesta:     61.92068   8.73243  71.72080  3      582
siesta:     61.74305  12.62527  72.92645  3      583
siesta:     65.73604  10.79034  72.77527  2      584
siesta:     65.78139  11.11537  70.74571  1      585
siesta:     66.35587  12.54968  73.65588  1      586
siesta:     67.75616   8.73999  73.31573  2      587
siesta:     69.85186   9.39383  71.95513  3      588
siesta:     68.51961   9.07069  75.74592  3      589
siesta:     67.24782   5.89406  72.93590  2      590
siesta:     68.75771   4.88872  73.89777  1      591
siesta:     65.46770   5.40273  73.86186  1      592
siesta:     67.06074   4.68085  70.29406  2      593
siesta:     65.63021   2.55869  70.53784  3      594
siesta:     65.63021   6.28901  68.88432  3      595
siesta:     69.51171   4.01756  68.80874  2      596
siesta:     70.76271   5.65595  68.88999  1      597
siesta:     70.39422   2.45098  69.85375  1      598
siesta:     69.39266   3.19364  66.00438  2      599
siesta:     66.95680   2.96876  65.27873  3      600
siesta:     70.25816   5.15517  64.60031  3      601
siesta:     70.82129   0.81258  65.11054  2      602
siesta:     71.33152   1.16785  63.16034  1      603
siesta:     72.57496   0.62172  66.18957  1      604
siesta:     69.55707  -1.80658  65.17668  2      605
siesta:     67.98292  -1.98799  63.17546  3      606
siesta:     71.42223  -3.48277  64.61354  3      607
siesta:     68.14922  -2.80624  67.48026  2      608
siesta:     67.19491  -1.19620  68.32308  1      609
siesta:     66.64122  -4.02512  66.76216  1      610
siesta:     69.54384  -4.19141  69.66667  2      611
siesta:     71.41089  -2.64184  70.53972  3      612
siesta:     67.85253  -4.34637  71.59230  3      613
siesta:     70.71547  -6.83136  69.28873  2      614
siesta:     71.58663  -6.88994  67.45380  1      615
siesta:     72.27071  -6.96742  70.63421  1      616
siesta:     69.13566  -9.28234  69.54195  2      617
siesta:     70.44902 -11.15128  68.33441  3      618
siesta:     69.12432 -10.00988  72.02505  3      619
siesta:     66.39555  -9.47509  68.60464  2      620
siesta:     65.69069 -11.26088  69.36243  1      621
siesta:     65.31085  -7.95575  69.50038  1      622
siesta:     65.75494  -9.45241  65.75116  2      623
siesta:     63.57986  -8.11638  65.47904  3      624
siesta:     67.54829  -8.09370  64.53039  3      625
siesta:     65.44502 -11.91662  64.24882  2      626
siesta:     64.96881 -11.41773  62.33264  1      627
siesta:     67.27617 -12.82180  64.22993  1      628
siesta:     63.50994 -13.92162  65.12566  2      629
siesta:     64.87432 -15.71875  66.35587  3      630
siesta:     62.01706 -12.95219  66.98893  3      631
siesta:     61.85265 -15.32568  63.19247  2      632
siesta:     63.01672 -15.57135  61.49549  1      633
siesta:     61.43691 -17.17384  63.95781  1      634
siesta:     59.33364 -14.18618  62.26272  2      635
siesta:     59.36955 -11.63127  62.50461  3      636
siesta:     59.25995 -14.55090  59.69836  3      637
siesta:     56.78251 -15.18018  63.32286  2      638
siesta:     55.30286 -14.29956  62.24760  1      639
siesta:     56.73338 -17.19651  62.87499  1      640
siesta:     56.07198 -14.91183  66.14800  2      641
siesta:     57.37778 -16.66928  67.53128  3      642
siesta:     56.93369 -12.64038  67.00405  3      643
siesta:     53.30731 -15.04790  67.01160  2      644
siesta:     53.28085 -14.50932  69.00716  1      645
siesta:     52.25095 -13.65328  65.97226  1      646
siesta:     51.82009 -17.55367  66.80940  2      647
siesta:     49.33510 -16.90928  66.91712  3      648
siesta:     52.14323 -18.47775  64.43591  3      649
siesta:     52.23016 -19.67395  68.75015  2      650
siesta:     54.10099 -19.39427  69.57030  1      651
siesta:     50.83932 -19.39616  70.22981  1      652
siesta:     52.13001 -22.48397  67.97537  2      653
siesta:     54.07076 -22.97341  66.34831  3      654
siesta:     52.68936 -23.86158  70.07485  3      655
siesta:     49.70171 -23.63670  66.84720  2      656
siesta:     48.59433 -22.09091  66.10454  1      657
siesta:     50.29508 -24.81967  65.26172  1      658
siesta:     47.90080 -25.27888  68.47614  2      659
siesta:     47.66836 -24.12803  70.75704  3      660
siesta:     45.54809 -25.06912  67.43490  3      661
siesta:     48.43559 -28.12292  68.88999  2      662
siesta:     47.44159 -29.09235  67.37632  1      663
siesta:     50.45004 -28.44417  68.59898  1      664
siesta:     47.74017 -29.39281  71.42034  2      665
siesta:     45.33455 -28.73897  72.09119  3      666
siesta:     47.60033 -31.91938  70.99704  3      667
siesta:     49.49006 -29.03376  73.71636  2      668
siesta:     51.19837 -30.07878  73.31762  1      669
siesta:     49.98706 -27.01365  73.75415  1      670
siesta:     48.63401 -29.75753  76.41489  2      671
siesta:     46.95971 -27.98119  77.21235  3      672
siesta:     47.26774 -31.93260  76.32040  3      673
siesta:     50.57854 -30.11658  78.56917  2      674
siesta:     49.53352 -29.93327  80.34363  1      675
siesta:     51.26262 -32.05355  78.48792  1      676
siesta:     52.89912 -28.37236  78.74870  2      677
siesta:     54.82854 -29.45139  77.39943  3      678
siesta:     52.37945 -26.16516  77.56762  3      679
siesta:     53.90446 -27.58623  81.37353  2      680
siesta:     54.95704 -25.86469  81.07495  1      681
siesta:     52.25095 -27.14026  82.52815  1      682
siesta:     55.55797 -29.43250  82.94011  2      683
siesta:     54.33532 -29.70273  85.20023  3      684
siesta:     55.39923 -31.77576  81.86108  3      685
siesta:     58.39067 -28.87881  83.47491  2      686
siesta:     59.48482 -29.93516  82.11052  1      687
siesta:     58.71003 -26.86058  83.13098  1      688
siesta:     59.56419 -29.41360  86.08840  2      689
siesta:     62.00383 -28.65582  86.00525  3      690
siesta:     58.48705 -27.80544  87.78159  3      691
siesta:     59.49049 -32.05544  87.30727  2      692
siesta:     60.14623 -31.77576  89.24046  1      693
siesta:     57.49494 -32.61480  87.37152  1      694
siesta:     60.93802 -34.30043  86.11863  2      695
siesta:     59.95725 -36.41882  87.21656  3      696
siesta:     60.18969 -34.44594  83.67333  3      697
siesta:     63.84820 -34.44405  86.16966  2      698
siesta:     64.40756 -35.88024  84.82039  1      699
siesta:     64.55118 -32.62424  85.48180  1      700
siesta:     65.21447 -35.05632  88.69622  2      701
siesta:     64.14111 -37.19171  89.65431  3      702
siesta:     67.59931 -35.82544  88.07450  3      703
siesta:     65.45258 -33.14203  90.89775  2      704
siesta:     63.65167 -33.06077  91.86907  1      705
siesta:     66.77917 -33.96784  92.22056  1      706
siesta:     66.31052 -30.39815  90.46312  2      707
siesta:     67.11743 -30.16004  88.03860  3      708
siesta:     64.21859 -28.89770  90.58406  3      709
siesta:     68.40055 -29.20573  92.09773  2      710
siesta:     70.19957 -30.10146  91.57805  1      711
siesta:     68.46858 -27.23096  91.52892  1      712
siesta:     68.24560 -29.17171  95.00791  2      713
siesta:     65.86076 -29.89359  95.71278  3      714
siesta:     69.76872 -31.08601  95.84317  3      715
siesta:     68.93346 -26.78121  96.55748  2      716
siesta:     67.42545 -25.40360  96.27025  1      717
siesta:     68.88054 -27.36136  98.53414  1      718
siesta:     71.48459 -25.43194  96.12096  2      719
siesta:     73.34786 -27.18183  95.97734  3      720
siesta:     71.43923 -24.34157  93.76636  3      721
siesta:     72.34630 -23.30600  97.91998  2      722
siesta:     73.70313 -22.10603  96.88063  1      723
siesta:     70.69657 -22.12681  98.30737  1      724
siesta:     73.54250 -23.92016 100.51079  2      725
siesta:     72.03261 -25.57367 101.72967  3      726
siesta:     75.70813 -25.23730 100.10828  3      727
siesta:     74.18123 -21.78666 102.40052  2      728
siesta:     74.20013 -22.63704 104.26946  1      729
siesta:     76.09363 -21.12715 102.00368  1      730
siesta:     72.53717 -19.38293 102.55737  2      731
siesta:     72.93590 -18.09413 100.39363  3      732
siesta:     70.06540 -20.11803 102.56493  3      733
siesta:     72.90566 -17.49698 104.75323  2      734
siesta:     72.86976 -18.59680 106.51257  1      735
siesta:     74.78027 -16.70519 104.53402  1      736
siesta:     71.09341 -15.24821 105.09716  2      737
siesta:     68.92023 -16.20252 106.03069  3      738
siesta:     72.07418 -13.80823 106.99823  3      739
siesta:     70.41122 -13.47186 102.88618  2      740
siesta:     69.72336 -14.70396 101.37818  1      741
siesta:     68.83330 -12.30590 103.50790  1      742
siesta:     72.35764 -11.69552 101.64085  2      743
siesta:     74.71791 -12.73109 101.94132  3      744
siesta:     72.00048 -11.79568  99.06515  3      745
siesta:     72.60142  -8.89683 102.41942  2      746
siesta:     72.75260  -8.84014 104.47922  1      747
siesta:     74.38532  -8.22031 101.58794  1      748
siesta:     70.54161  -6.94853 101.67675  2      749
siesta:     70.50382  -6.62160  99.11995  3      750
siesta:     68.25693  -7.95953 102.24745  3      751
siesta:     70.56807  -4.29724 102.90886  2      752
siesta:     68.65945  -3.54513 102.79169  1      753
siesta:     70.91200  -4.64684 104.92142  1      754
siesta:     72.44646  -2.22232 101.99801  2      755
siesta:     73.53116  -1.21509 104.09183  3      756
siesta:     74.43067  -3.35804 100.86795  3      757
siesta:     71.60931  -0.04724 100.25190  2      758
siesta:     73.32329   0.74077  99.42420  1      759
siesta:     70.54350  -0.89573  98.68532  1      760
siesta:     70.00304   2.19019 101.29881  2      761
siesta:     68.75393   3.22009  99.34105  3      762
siesta:     68.13977   1.19809 102.77469  3      763
siesta:     71.25593   4.35960 102.80303  2      764
siesta:     69.77439   5.37816 103.81782  1      765
siesta:     72.49370   3.47899 104.18442  1      766
siesta:     72.87354   6.42885 101.47455  2      767
siesta:     74.35130   7.50411 103.27546  3      768
siesta:     74.56484   5.30635  99.89852  3      769
siesta:     71.61876   8.58314  99.96844  2      770
siesta:     73.07574  10.00421  99.58105  1      771
siesta:     71.04995   7.74977  98.17320  1      772
siesta:     69.33219  10.05335 100.98889  2      773
siesta:     69.54951  10.11004 103.53436  3      774
siesta:     69.57407  12.53078 100.32371  3      775
siesta:     66.59586   9.19730 100.38796  2      776
siesta:     66.41256   7.26978 101.10606  1      777
siesta:     65.32408  10.37838 101.48211  1      778
siesta:     65.58675   9.21242  97.67053  2      779
siesta:     64.26205  11.38749  97.30204  3      780
siesta:     67.55585   9.40895  96.02269  3      781
siesta:     63.93891   6.98821  96.73134  2      782
siesta:     63.62332   7.35293  94.72067  1      783
siesta:     65.00660   5.24399  96.92976  1      784
siesta:     61.32353   6.52901  97.93510  2      785
siesta:     61.14022   7.94252 100.08560  3      786
siesta:     59.57175   7.57780  96.33828  3      787
siesta:     60.33520   3.83237  98.54548  2      788
siesta:     58.35855   4.06102  99.15208  1      789
siesta:     60.34843   2.74766  96.78992  1      790
siesta:     61.59943   2.21287 100.60528  2      791
siesta:     63.72537   3.39206 101.44243  3      792
siesta:     60.06119   2.29413 102.66697  3      793
siesta:     62.20036  -0.61605 100.17442  2      794
siesta:     63.13011  -1.28123 101.90352  1      795
siesta:     60.37110  -1.56847 100.00057  1      796
siesta:     63.89922  -1.48722  97.93510  2      797
siesta:     64.57764   0.61605  96.62174  3      798
siesta:     66.11587  -2.38295  98.84972  3      799
siesta:     62.90901  -3.42230  95.96411  2      800
siesta:     61.38589  -2.49255  94.90208  1      801
siesta:     64.42835  -3.84370  94.63185  1      802
siesta:     61.87344  -6.00366  96.85039  2      803
siesta:     59.47537  -5.57658  97.65731  3      804
siesta:     61.55218  -7.45875  94.76035  3      805
siesta:     63.30774  -7.56836  98.88941  2      806
siesta:     65.15589  -8.06157  98.12218  1      807
siesta:     63.62143  -6.30602 100.49757  1      808
siesta:     62.22682 -10.04390  99.99112  2      809
siesta:     63.53640 -10.52389 102.15675  3      810
siesta:     59.82497  -9.62249 100.80370  3      811
siesta:     62.19847 -12.49109  98.42642  2      812
siesta:     60.60921 -13.58336  99.09917  1      813
siesta:     61.82808 -11.94496  96.46867  1      814
siesta:     64.48315 -14.28822  98.40186  2      815
siesta:     66.55429 -12.88605  97.87462  3      816
siesta:     64.79307 -15.20663 100.78291  3      817
siesta:     64.39433 -16.55590  96.55559  2      818
siesta:     62.82019 -17.75587  97.10740  1      819
siesta:     64.01450 -15.78867  94.67910  1      820
siesta:     66.72437 -18.32846  96.33072  2      821
siesta:     68.46669 -17.63115  98.07494  3      822
siesta:     65.98926 -20.66794  97.11495  3      823
siesta:     68.14922 -18.64405  93.80037  2      824
siesta:     68.46292 -20.67550  93.59817  1      825
siesta:     66.90389 -18.06957  92.26025  1      826
siesta:     70.70791 -17.38360  93.28070  2      827
siesta:     72.42189 -18.23586  95.02114  3      828
siesta:     71.55451 -18.33413  91.07728  3      829
siesta:     70.97625 -14.46964  93.18621  2      830
siesta:     69.72147 -13.70052  94.59784  1      831
siesta:     72.87921 -14.03311  93.79659  1      832
siesta:     70.52461 -13.05801  90.68988  2      833
siesta:     72.67701 -13.26588  89.31416  3      834
siesta:     68.79362 -14.36003  89.30660  3      835
siesta:     69.73659 -10.25933  90.69933  2      836
siesta:     70.94602  -9.30879  92.07883  1      837
siesta:     70.19390  -9.52233  88.82661  1      838
siesta:     66.97948  -9.55824  91.36640  2      839
siesta:     65.97981 -11.41017  92.80638  3      840
siesta:     67.02105  -7.51355  92.93488  3      841
siesta:     65.08786  -9.05746  89.21212  2      842
siesta:     65.28061 -10.61082  87.88931  1      843
siesta:     63.22648  -9.20108  90.10218  1      844
siesta:     65.18235  -6.56680  87.65498  2      845
siesta:     65.56596  -4.61282  89.26881  3      846
siesta:     67.33097  -6.65562  86.26603  3      847
siesta:     63.00160  -5.79957  85.88053  2      848
siesta:     63.04318  -3.73221  85.65187  1      849
siesta:     63.41545  -6.61593  84.04182  1      850
siesta:     60.26150  -6.50255  86.59484  2      851
siesta:     59.96292  -9.04612  86.27548  3      852
siesta:     60.06308  -6.18130  89.13086  3      853
siesta:     57.96359  -5.21187  85.37975  2      854
siesta:     56.32520  -6.21909  86.09596  1      855
siesta:     57.87667  -3.30324  86.10352  1      856
siesta:     57.61210  -5.01345  82.50737  2      857
siesta:     59.32042  -3.31647  81.60219  3      858
siesta:     58.28674  -7.22821  81.39243  3      859
siesta:     54.99861  -4.39173  81.39621  2      860
siesta:     55.31420  -3.69064  79.51404  1      861
siesta:     53.99139  -6.16240  81.22235  1      862
siesta:     53.19392  -2.49822  82.70957  2      863
siesta:     50.89979  -2.71365  81.57951  3      864
siesta:     52.79708  -3.32781  85.11897  3      865
siesta:     53.76462   0.36094  82.83618  2      866
siesta:     52.05442   1.29635  83.47680  1      867
siesta:     55.20081   0.65762  84.27048  1      868
siesta:     54.64901   1.81792  80.45890  2      869
siesta:     57.22282   1.67430  80.37197  3      870
siesta:     53.94414   0.53479  78.35941  3      871
siesta:     53.99706   4.63739  80.09607  2      872
siesta:     54.45437   5.59359  81.87620  1      873
siesta:     55.27073   5.37060  78.66366  1      874
siesta:     51.28908   5.43108  79.36475  2      875
siesta:     49.76218   5.05880  81.37920  3      876
siesta:     51.33443   8.00110  79.18712  3      877
siesta:     50.06831   4.41251  76.92133  2      878
siesta:     49.10833   6.01311  76.01426  1      879
siesta:     51.62734   3.88150  75.69301  1      880
siesta:     48.19937   2.14862  76.93267  2      881
siesta:     49.47116   0.17197  75.92356  3      882
siesta:     47.70427   1.38895  79.35530  3      883
siesta:     45.68226   2.25822  75.48892  2      884
siesta:     46.13579   2.88183  73.58974  1      885
siesta:     44.97361   0.33070  75.33396  1      886
siesta:     43.47884   3.92307  76.34497  2      887
siesta:     41.89713   2.42830  77.69423  3      888
siesta:     44.33677   5.65973  78.04005  3      889
siesta:     41.85367   5.33848  74.36453  2      890
siesta:     41.52297   4.08181  72.76582  1      891
siesta:     40.03008   5.62572  75.27160  1      892
siesta:     42.73428   7.91229  73.30251  2      893
siesta:     45.30809   7.88772  73.18534  3      894
siesta:     41.93115   8.05969  70.85720  3      895
siesta:     42.03697  10.41428  74.63287  2      896
siesta:     42.14847  10.09303  76.66811  1      897
siesta:     43.45427  11.83914  74.18501  1      898
siesta:     39.46317  11.71631  74.11887  2      899
siesta:     39.45750  13.92351  75.43412  3      900
siesta:     39.36112  12.44763  71.66222  3      901
siesta:     36.97251  10.27633  74.67445  2      902
siesta:     37.11424   8.43385  73.77116  1      903
siesta:     36.91959  10.00610  76.68890  1      904
siesta:     34.39870  11.42529  73.99981  2      905
siesta:     32.63369   9.81902  74.96547  3      906
siesta:     34.12091  13.55690  75.38498  3      907
siesta:     33.55588  12.05268  71.29751  2      908
siesta:     31.53765  12.43818  71.41845  1      909
siesta:     34.43460  13.82146  70.76271  1      910
siesta:     33.88658  10.19886  69.08275  2      911
siesta:     34.81444   7.97465  70.00115  3      912
siesta:     31.55088   9.59414  68.23048  3      913
siesta:     35.48907  10.91695  66.79051  2      914
siesta:     34.35146  12.18496  65.61510  1      915
siesta:     37.07266  12.01677  67.49349  1      916
siesta:     36.58700   8.88550  65.01605  2      917
siesta:     37.88524  10.15539  63.18680  3      918
siesta:     38.41437   7.60426  66.29351  3      919
siesta:     34.85979   7.01845  63.61010  2      920
siesta:     32.97195   7.87449  63.50805  1      921
siesta:     35.55143   6.83136  61.68069  1      922
siesta:     34.47807   4.28590  64.60031  2      923
siesta:     32.96440   4.39361  66.70925  3      924
siesta:     33.06077   3.13695  62.78429  3      925
siesta:     36.73251   2.53601  65.17479  2      926
siesta:     38.21595   2.94797  63.78773  1      927
siesta:     37.42415   3.09915  67.04373  1      928
siesta:     36.39425  -0.35905  65.26361  2      929
siesta:     38.55232  -1.34171  66.25760  3      930
siesta:     34.64436  -0.88250  67.07019  3      931
siesta:     35.69316  -1.86138  62.85232  2      932
siesta:     33.72974  -2.47554  63.07719  1      933
siesta:     35.77064  -0.55747  61.27061  1      934
siesta:     37.22384  -4.24622  62.08887  2      935
siesta:     36.36968  -4.90384  59.76261  3      936
siesta:     39.66537  -3.49599  61.67502  3      937
siesta:     37.27675  -6.63672  63.74427  2      938
siesta:     38.92270  -7.73276  63.18680  1      939
siesta:     37.61690  -6.03579  65.71336  1      940
siesta:     35.01097  -8.45842  63.81797  2      941
siesta:     32.83967  -7.09781  64.15056  3      942
siesta:     34.77853  -9.49966  61.48415  3      943
siesta:     34.95806 -10.59948  65.79840  2      944
siesta:     35.48340  -9.75288  67.60687  1      945
siesta:     33.02298 -11.22309  65.98170  1      946
siesta:     36.59645 -13.00321  65.45258  2      947
siesta:     38.88302 -12.27945  64.59275  3      948
siesta:     37.06321 -13.95752  67.79206  3      949
siesta:     35.64214 -15.19340  63.74994  2      950
siesta:     33.63147 -15.42773  64.09765  1      951
siesta:     35.87080 -14.52255  61.79785  1      952
siesta:     36.80621 -17.88815  63.87466  2      953
siesta:     36.68149 -18.72719  66.30863  3      954
siesta:     35.14325 -19.44529  62.65956  3      955
siesta:     39.40647 -18.55145  62.73137  2      956
siesta:     39.47073 -20.59424  62.58397  1      957
siesta:     39.43671 -17.78611  60.81519  1      958
siesta:     41.87635 -17.74454  64.08064  2      959
siesta:     41.34155 -16.54645  66.26894  3      960
siesta:     43.05554 -19.88749  64.86299  3      961
siesta:     43.88513 -16.13638  62.75594  2      962
siesta:     42.94404 -14.37704  62.13233  1      963
siesta:     45.30620 -15.63371  64.17890  1      964
siesta:     45.35156 -17.15305  60.44102  2      965
siesta:     43.67726 -18.18106  58.78184  3      966
siesta:     46.31343 -15.09325  59.26561  3      967
siesta:     47.57387 -18.98231  60.85110  2      968
siesta:     49.23494 -18.13571  59.97426  1      969
siesta:     47.90458 -19.00309  62.85799  1      970
siesta:     47.48506 -21.77154  60.00072  2      971
siesta:     49.70927 -22.78066  60.76606  3      972
siesta:     45.71438 -22.92806  61.48226  3      973
siesta:     46.95404 -22.51799  57.22282  2      974
siesta:     45.06432 -23.32112  57.17747  1      975
siesta:     46.91625 -20.74542  56.14945  1      976
siesta:     48.69826 -24.33779  55.71671  2      977
siesta:     48.22961 -23.81812  53.24683  3      978
siesta:     51.15869 -23.58568  56.03040  3      979
siesta:     48.47905 -27.25931  55.97182  2      980
siesta:     46.50051 -27.72985  55.59010  1      981
siesta:     49.62612 -28.11347  54.47516  1      982
siesta:     49.18392 -28.64826  58.43791  2      983
siesta:     47.70427 -27.80733  60.33709  3      984
siesta:     48.42425 -31.07656  58.08831  3      985
siesta:     51.95426 -28.74086  59.33742  2      986
siesta:     53.06164 -29.44194  57.78029  1      987
siesta:     52.53063 -26.78499  59.70592  1      988
siesta:     52.65913 -30.27342  61.72415  2      989
siesta:     55.03452 -29.54210  62.41768  3      990
siesta:     51.16813 -29.48541  63.68758  3      991
siesta:     52.57787 -33.20250  61.72415  2      992
siesta:     51.75206 -33.76753  63.50994  1      993
siesta:     51.27774 -33.82422  60.27284  1      994
siesta:     55.01373 -34.79365  61.34998  2      995
siesta:     56.03040 -34.17760  59.07097  3      996
siesta:     56.80330 -34.00752  63.09987  3      997
siesta:     54.83420 -37.70950  61.53140  2      998
siesta:     54.36366 -38.15359  63.46081  1      999
siesta:     53.23928 -38.24429  60.34843  1     1000
siesta:     57.06597 -39.42537  60.75850  2     1001
siesta:     56.65779 -41.71572  61.80163  3     1002
siesta:     56.88267 -39.82410  58.24138  3     1003
siesta:     59.82875 -38.70917  61.32542  2     1004
siesta:     61.06652 -40.02630  60.31441  1     1005
siesta:     60.12166 -36.84778  60.47693  1     1006
siesta:     60.80763 -38.58066  64.05796  2     1007
siesta:     58.75539 -38.44649  65.61132  3     1008
siesta:     61.94714 -40.82377  64.65889  3     1009
siesta:     62.67468 -36.46228  64.79496  2     1010
siesta:     61.68635 -34.64247  64.55118  1     1011
siesta:     63.07530 -36.67204  66.79807  1     1012
siesta:     65.24471 -36.19205  63.42679  2     1013
siesta:     65.76250 -38.37657  62.17012  3     1014
siesta:     64.91590 -34.48941  61.52951  3     1015
siesta:     67.66356 -35.40970  64.88755  2     1016
siesta:     67.81474 -36.60212  66.55429  1     1017
siesta:     69.28117 -35.85946  63.67246  1     1018
siesta:     67.96592 -32.64881  65.75116  2     1019
siesta:     65.58675 -31.74363  66.17446  3     1020
siesta:     68.99393 -32.69416  68.10954  3     1021
siesta:     69.33408 -30.66838  64.10709  2     1022
siesta:     68.76149 -30.90648  62.15879  1     1023
siesta:     68.61409 -28.81833  64.72693  1     1024
siesta:     72.26316 -30.57011  64.05607  2     1025
siesta:     73.18345 -31.06900  66.39933  3     1026
siesta:     73.10786 -32.60157  62.66901  3     1027
siesta:     73.60486 -28.18906  63.07908  2     1028
siesta:     75.62498 -28.61235  62.98649  1     1029
siesta:     72.91700 -27.91127  61.13833  1     1030
siesta:     73.41022 -25.62281  64.47559  2     1031
siesta:     75.57018 -24.32267  63.91056  3     1032
siesta:     71.46947 -24.30378  63.38522  3     1033
siesta:     73.12676 -25.45084  67.39900  2     1034
siesta:     71.78505 -26.88703  67.99804  1     1035
siesta:     74.94468 -25.96107  68.26071  1     1036
siesta:     72.21024 -22.96018  68.61031  2     1037
siesta:     69.65722 -22.77499  68.24371  3     1038
siesta:     72.45969 -23.27388  71.15578  3     1039
siesta:     73.44990 -20.37126  68.03773  2     1040
siesta:     75.05995 -20.23142  69.31518  1     1041
siesta:     74.14721 -20.45062  66.10832  1     1042
siesta:     71.90789 -17.90516  68.35709  2     1043
siesta:     73.50471 -15.95118  67.91867  3     1044
siesta:     70.24682 -17.76343  66.40122  3     1045
siesta:     70.40933 -17.34958  70.80240  2     1046
siesta:     69.16967 -15.74709  70.37154  1     1047
siesta:     69.20936 -18.99364  71.20113  1     1048
siesta:     71.78883 -16.69952  73.27794  2     1049
siesta:     70.00682 -16.72030  75.14310  3     1050
siesta:     73.32329 -18.66483  73.95257  3     1051
siesta:     73.23637 -14.17862  73.56707  2     1052
siesta:     72.76393 -13.05801  71.91356  1     1053
siesta:     72.46725 -13.20352  75.19223  1     1054
siesta:     76.14465 -14.12571  73.83730  2     1055
siesta:     77.12920 -15.98331  72.36331  3     1056
siesta:     76.92322 -11.97520  72.60898  3     1057
siesta:     77.56384 -14.27311  76.38087  2     1058
siesta:     77.85675 -16.26488  76.80417  1     1059
siesta:     79.42522 -13.42273  76.06907  1     1060
siesta:     76.47347 -13.06368  78.79027  2     1061
siesta:     74.85019 -14.76633  79.83151  3     1062
siesta:     78.39532 -12.94841  80.49292  3     1063
siesta:     75.30184 -10.37271  78.76193  2     1064
siesta:     76.73425  -9.10092  79.55183  1     1065
siesta:     75.01082  -9.78501  76.79661  1     1066
siesta:     72.84519  -9.86437  80.26237  2     1067
siesta:     71.06129 -11.49521  79.40821  3     1068
siesta:     73.21747 -10.50121  82.73602  3     1069
siesta:     71.63010  -7.21309  80.25670  2     1070
siesta:     70.15800  -7.21309  81.69478  1     1071
siesta:     73.06818  -5.88650  80.81795  1     1072
siesta:     70.41878  -6.10949  77.84352  2     1073
siesta:     72.26127  -5.89973  76.06718  3     1074
siesta:     68.79173  -7.87827  76.87220  3     1075
siesta:     69.00527  -3.55458  77.91344  2     1076
siesta:     70.43957  -2.13350  78.39532  1     1077
siesta:     68.34575  -3.18986  75.98781  1     1078
siesta:     66.75649  -3.16151  79.72380  2     1079
siesta:     65.47148  -5.36116  79.96757  3     1080
siesta:     67.73348  -2.73632  82.07084  3     1081
siesta:     64.79118  -1.06581  79.22491  2     1082
siesta:     63.64978  -1.65162  77.61486  1     1083
siesta:     63.54396  -1.02990  80.85574  1     1084
siesta:     65.63966   1.66863  78.71846  2     1085
siesta:     67.40278   1.67430  76.87220  3     1086
siesta:     63.68946   2.89128  77.57140  3     1087
siesta:     66.67523   3.35049  80.87464  2     1088
siesta:     67.58419   2.16185  82.28816  1     1089
siesta:     68.17946   4.50133  80.05639  1     1090
siesta:     64.94046   5.17596  82.33351  2     1091
siesta:     66.22926   5.90918  84.43678  3     1092
siesta:     64.67590   7.33970  80.93511  3     1093
siesta:     62.27406   4.39550  83.21412  2     1094
siesta:     61.24038   6.12083  83.67144  1     1095
siesta:     61.37833   3.53757  81.57573  1     1096
siesta:     62.00383   2.55680  85.43077  2     1097
siesta:     59.90812   1.10171  84.98291  3     1098
siesta:     63.98048   0.90140  85.32117  3     1099
siesta:     61.83564   3.56969  88.15009  2     1100
siesta:     63.74616   4.11960  88.70567  1     1101
siesta:     60.72826   5.30635  88.05560  1     1102
siesta:     60.73582   1.90295  90.26658  2     1103
siesta:     61.56730  -0.54613  89.93210  3     1104
siesta:     61.79974   2.65885  92.48701  3     1105
siesta:     57.86533   1.71587  90.74091  2     1106
siesta:     56.96771   1.11494  88.97968  1     1107
siesta:     57.61777   0.20598  92.09962  1     1108
siesta:     56.30819   3.97976  91.72545  2     1109
siesta:     55.91513   3.52434  94.22178  3     1110
siesta:     57.83320   6.06413  91.71789  3     1111
siesta:     53.74005   4.65251  90.47823  2     1112
siesta:     52.71204   2.89884  90.19855  1     1113
siesta:     52.64590   5.77312  91.79915  1     1114
siesta:     53.74005   6.10382  87.93655  2     1115
siesta:     55.80363   5.30257  86.59673  3     1116
siesta:     51.74072   5.22509  86.55327  3     1117
siesta:     53.76840   9.01400  87.85718  2     1118
siesta:     55.22538   9.66973  89.18377  1     1119
siesta:     54.40524   9.58658  85.97690  1     1120
siesta:     51.35144  10.55412  88.44111  2     1121
siesta:     50.63334  10.01366  90.83350  3     1122
siesta:     52.01095  13.03723  88.54504  3     1123
siesta:     48.94015  10.34436  86.80460  2     1124
siesta:     48.60567   8.33370  86.47012  1     1125
siesta:     47.36411  11.06246  87.92521  1     1126
siesta:     48.77952  11.63694  84.19111  2     1127
siesta:     48.57165  14.16917  84.59551  3     1128
siesta:     51.05475  11.34214  83.07050  3     1129
siesta:     46.73861  10.86404  82.23713  2     1130
siesta:     47.36789  11.60481  80.44000  1     1131
siesta:     46.83688   8.80802  82.09918  1     1132
siesta:     43.89647  11.51789  82.59240  2     1133
siesta:     42.56043   9.45052  81.88187  3     1134
siesta:     43.36167  11.74087  85.08684  3     1135
siesta:     42.71539  13.73076  81.12031  2     1136
siesta:     43.75096  13.99343  79.37231  1     1137
siesta:     40.80109  13.16195  80.60630  1     1138
siesta:     42.49240  16.37448  82.33351  2     1139
siesta:     44.86212  17.14738  83.02326  3     1140
siesta:     41.89524  17.96941  80.41733  3     1141
siesta:     40.69149  16.91872  84.56906  2     1142
siesta:     40.82566  15.31435  85.85974  1     1143
siesta:     41.49840  18.53444  85.58384  1     1144
siesta:     37.86068  17.44407  84.17788  2     1145
siesta:     36.74574  17.50265  86.51359  3     1146
siesta:     37.64525  19.83835  83.35774  3     1147
siesta:     36.16937  15.77922  82.47146  2     1148
siesta:     34.30610  16.70708  82.42611  1     1149
siesta:     36.90448  15.85103  80.52882  1     1150
siesta:     35.68182  12.98242  83.14420  2     1151
siesta:     35.93694  11.67095  80.95590  3     1152
siesta:     37.65281  12.10370  84.55205  3     1153
siesta:     33.23274  12.13016  84.49158  2     1154
siesta:     33.61257  10.26689  85.24747  1     1155
siesta:     32.97384  13.35848  86.09596  1     1156
siesta:     30.67216  11.90528  83.08562  2     1157
siesta:     31.07278  11.02467  80.69890  3     1158
siesta:     29.35124  10.02878  84.26481  3     1159
siesta:     28.89581  14.20697  82.97602  2     1160
siesta:     27.37269  13.81201  84.27804  1     1161
siesta:     29.90493  15.86993  83.66388  1     1162
siesta:     27.56734  14.95152  80.47780  2     1163
siesta:     25.72296  13.24132  80.01859  3     1164
siesta:     26.31823  17.13982  80.97102  3     1165
siesta:     29.13014  15.29356  78.03438  2     1166
siesta:     31.12002  15.28033  78.59941  1     1167
siesta:     28.75597  13.60792  76.90433  1     1168
siesta:     28.72007  17.58769  76.29205  2     1169
siesta:     29.86713  17.08880  74.04706  3     1170
siesta:     26.21240  17.66139  75.69679  3     1171
siesta:     29.52320  20.26165  77.06495  2     1172
siesta:     28.92605  21.52399  75.55506  1     1173
siesta:     28.43283  20.73975  78.73358  1     1174
siesta:     32.30677  20.86447  77.67722  2     1175
siesta:     32.58456  20.56590  80.20568  3     1176
siesta:     33.79021  19.01254  76.68701  3     1177
siesta:     33.45761  23.46285  76.97613  2     1178
siesta:     33.26675  23.62348  74.94090  1     1179
siesta:     32.24063  24.90093  77.82084  1     1180
siesta:     36.19772  24.12236  77.69801  2     1181
siesta:     36.04465  25.82501  79.60852  3     1182
siesta:     37.29565  22.06445  78.76949  3     1183
siesta:     38.04776  25.25053  75.74403  2     1184
siesta:     36.94227  26.19728  74.28516  1     1185
siesta:     39.17593  26.69050  76.67000  1     1186
siesta:     39.97528  23.49875  74.42122  2     1187
siesta:     41.19416  24.95006  72.66945  3     1188
siesta:     41.82532  22.93373  76.10875  3     1189
siesta:     39.18916  20.99865  73.14377  2     1190
siesta:     40.92204  19.96496  72.73370  1     1191
siesta:     38.14981  19.89693  74.53272  1     1192
siesta:     37.58667  21.00431  70.72681  2     1193
siesta:     36.27898  18.79711  70.64177  3     1194
siesta:     35.68560  22.73719  71.02916  3     1195
siesta:     38.75452  21.49186  68.07741  2     1196
siesta:     37.48462  22.79955  67.10042  1     1197
siesta:     40.55165  22.49342  68.38355  1     1198
siesta:     39.32333  19.30545  66.24627  2     1199
siesta:     37.12368  18.46263  65.21258  3     1200
siesta:     40.57622  20.32023  64.26583  3     1201
siesta:     40.85401  16.99809  67.18924  2     1202
siesta:     42.39980  17.73698  68.31174  1     1203
siesta:     39.66537  15.92851  68.48937  1     1204
siesta:     42.01997  15.10081  65.30329  2     1205
siesta:     40.27008  14.58491  63.52884  3     1206
siesta:     43.88324  16.33102  64.08064  3     1207
siesta:     43.13302  12.56479  66.22359  2     1208
siesta:     44.06843  12.90494  68.03584  1     1209
siesta:     41.58911  11.24010  66.53917  1     1210
siesta:     45.05298  11.15128  64.55874  2     1211
siesta:     47.36222  12.13394  65.07652  3     1212
siesta:     45.11723   8.72865  65.43179  3     1213
siesta:     44.77141  11.04356  61.67313  2     1214
siesta:     42.77397  10.90939  61.26495  1     1215
siesta:     45.43470  12.85770  60.95692  1     1216
siesta:     46.16792   8.96486  60.10654  2     1217
siesta:     46.70271   9.97209  57.80675  3     1218
siesta:     48.46960   8.56991  61.19125  3     1219
siesta:     44.92637   6.36082  59.64734  2     1220
siesta:     46.11500   5.35927  58.31319  1     1221
siesta:     44.99251   5.34415  61.44069  1     1222
siesta:     42.17303   6.19263  58.69870  2     1223
siesta:     40.73495   6.29657  60.80574  3     1224
siesta:     41.61557   8.29779  57.35510  3     1225
siesta:     41.30943   3.87205  57.16991  2     1226
siesta:     42.77586   3.44308  55.78852  1     1227
siesta:     41.23195   2.26767  58.49650  1     1228
siesta:     38.76397   3.92307  55.72805  2     1229
siesta:     36.92148   4.68274  57.38723  3     1230
siesta:     38.81121   5.75044  53.93092  3     1231
siesta:     37.78131   1.49666  54.43736  2     1232
siesta:     37.98729  -0.04535  55.75828  1     1233
siesta:     35.76875   1.76312  54.09154  1     1234
siesta:     38.92270   0.59715  51.89379  2     1235
siesta:     37.94194   2.05224  50.00595  3     1236
siesta:     41.42848   1.15651  51.90702  3     1237
siesta:     38.67893  -2.17130  51.04341  2     1238
siesta:     38.70728  -2.14106  48.96849  1     1239
siesta:     40.40236  -3.15206  51.67647  1     1240
siesta:     36.37535  -3.72087  51.92592  2     1241
siesta:     36.76086  -4.23677  54.42791  3     1242
siesta:     34.28154  -2.22232  51.85600  3     1243
siesta:     35.76686  -6.29846  50.65791  2     1244
siesta:     36.61724  -6.29279  48.79086  1     1245
siesta:     36.70983  -7.73087  51.76151  1     1246
siesta:     32.99463  -7.18285  50.44437  2     1247
siesta:     32.06300  -6.61026  48.11812  3     1248
siesta:     32.79432  -9.74910  50.62956  3     1249
siesta:     31.82678  -6.28523  51.89757  1     1250
siesta:     18.97286  21.65627  12.60448  4     1251
siesta:     24.43228  21.65627  12.60448  4     1252
siesta:     13.51344  21.65627  12.60448  4     1253
siesta:     21.70351  26.38437  12.60448  4     1254
siesta:     21.70351  16.92817  12.60448  4     1255
siesta:     16.24220  26.38437  12.60448  4     1256
siesta:     16.24220  16.92817  12.60448  4     1257
siesta:     18.97286  24.80833  17.06234  4     1258
siesta:     18.97286  15.35214  17.06234  4     1259
siesta:     21.70351  20.08024  17.06234  4     1260
siesta:     16.24220  20.08024  17.06234  4     1261
siesta:     24.43228  24.80833  17.06234  4     1262
siesta:     13.51344  24.80833  17.06234  4     1263
siesta:     21.70351  23.23230  24.35480  4     1264
siesta:     16.24220  23.23230  24.35480  4     1265
siesta:     18.97286  18.50421  24.35480  4     1266
siesta:     18.97286  27.96040  24.35480  4     1267
siesta:     13.51344  18.50421  24.35480  4     1268
siesta:     24.43228  18.50421  24.35480  4     1269
siesta:     24.43228  21.65627  28.81267  4     1270
siesta:     13.51344  21.65627  28.81267  4     1271
siesta:     21.70351  26.38437  28.81267  4     1272
siesta:     21.70351  16.92817  28.81267  4     1273
siesta:     16.24220  26.38437  28.81267  4     1274
siesta:     16.24220  16.92817  28.81267  4     1275
siesta:     18.97286  21.65627  28.81267  4     1276
siesta:     18.97286  24.80833  33.27053  4     1277
siesta:     18.97286  15.35214  33.27053  4     1278
siesta:     21.70351  20.08024  33.27053  4     1279
siesta:     16.24220  20.08024  33.27053  4     1280
siesta:     24.43228  24.80833  33.27053  4     1281
siesta:     13.51344  24.80833  33.27053  4     1282

initatomlists: Number of atoms, orbitals, and projectors:   1282 13386 17586

siesta: System type = bulk      

* ProcessorY, Blocksize:    8  24


siesta: k-grid: Number of k-points =     1
siesta: k-grid: Cutoff (effective) =    11.267 Ang
siesta: k-grid: Supercell and displacements
siesta: k-grid:    1   0   0      0.000
siesta: k-grid:    0   1   0      0.000
siesta: k-grid:    0   0   1      0.000
Naive supercell factors:     2    2    2

superc: Internal auxiliary supercell:     2 x     2 x     2  =       8
superc: Number of atoms, orbitals, and projectors:  10256 ***** *****

* Maximum dynamic memory allocated =    11 MB

siesta:                 ==============================
                            Begin CG move =      0
                        ==============================

superc: Internal auxiliary supercell:     2 x     2 x     2  =       8
superc: Number of atoms, orbitals, and projectors:  10256 ***** *****

outcell: Unit cell vectors (Ang):
       22.534000    0.000000    0.000000
        0.000000   24.472000    0.000000
        0.000000    0.000000   23.649000

outcell: Cell vector modules (Ang)   :   22.534000   24.472000   23.649000
outcell: Cell angles (23,13,12) (deg):     90.0000     90.0000     90.0000
outcell: Cell volume (Ang**3)        :  13041.2895

iodm: Reading Density Matrix from files

InitMesh: MESH =   320 x   360 x   320 =    36864000
InitMesh: Mesh cutoff (required, used) =   500.000   506.030 Ry
efield: ERROR: Non zero bulk electric field.
efield: Input field (Ry/Bohr/e) =    0.000000    0.000000    0.000389

efield: Orthogonalized field    =    0.000000    0.000000    0.000000

* Maximum dynamic memory allocated =   512 MB

stepf: Fermi-Dirac step function

siesta: Program's energy decomposition (eV):
siesta: Eions   =    528240.073050
siesta: Ena     =     62911.237988
siesta: Ekin    =    279883.318576
siesta: Enl     =    -98089.846006
siesta: DEna    =     -8304.084293
siesta: DUscf   =      3640.032695
siesta: DUext   =         0.000000
siesta: Exc     =    -83387.176378
siesta: eta*DQ  =         0.000000
siesta: Emadel  =         0.000000
siesta: Ekinion =         0.000000
siesta: Eharris =   -476317.111705
siesta: Etot    =   -371586.590469
siesta: FreeEng =   -371586.590469

siesta: iscf   Eharris(eV)      E_KS(eV)   FreeEng(eV)   dDmax  Ef(eV)
siesta:    1  -476317.1117  -371586.5905  -371586.5905******** -7.2135
timer: Routine,Calls,Time,% = IterSCF        1   57615.602  95.74
elaps: Routine,Calls,Wall,% = IterSCF        1     900.731  95.77
64 total processes killed (some possibly by mpiexec during cleanup)
