Siesta Version:                                        siesta-3.1
Architecture  : x86_64-unknown-linux-gnu--Intel
Compiler flags: mpif90 -O3 -xSSSE3 -axSSE4.2,SSE4.1 -ip
PARALLEL version
NetCDF support

* Running on   64 nodes in parallel
>> Start of run:  20-MAR-2012   0:14:58

                           ***********************       
                           *  WELCOME TO SIESTA  *       
                           ***********************       

reinit: Reading from standard input
************************** Dump of input data file ****************************
SystemName      optical
SystemLabel     optical
NumberOfAtoms   1282
NumberOfSpecies 4
MD.TypeOfRun    CG
MD.NumCGsteps   0
MD.ConstantVolume  .true.
SolutionMethod  diagon
XC.functional   GGA
XC.authors      PBE
PAO.BasisSize   DZP
DM.NumberPulay  7
DM.MixingWeight 0.1
DirectPhi       .true.
SaveMemory      .true.
MeshCutoff      500 Ry
MaxSCFiterations 200
UseSaveData     .true.
WriteMullikenPop 1
OpticalCalculation      .true.
%block Optical.Mesh
 1 1 1
%endblock Optical.Mesh
Optical.PolarizationType  polarized
%block Optical.Vector
 0.0 1.0 0.0
%endblock Optical.Vector
Optical.Broaden         0.05 eV
Optical.EnergyMinimum   0.001 eV
Optical.EnergyMaximum   100.0 eV
%block ChemicalSpeciesLabel
 1   1   H
 2   6   C
 3   9   F
 4  47   Ag
%endblock ChemicalSpeciesLabel
LatticeConstant 1.0 Ang
%block LatticeParameters
  22.534   24.472   23.649   90.0 90.0 90.0
%endblock LatticeParameters
AtomicCoordinatesFormat Ang
%block AtomicCoordinatesAndAtomicSpecies < struct.coor
%endblock AtomicCoordinatesAndAtomicSpecies
************************** End of input data file *****************************

reinit: -----------------------------------------------------------------------
reinit: System Name: optical
reinit: -----------------------------------------------------------------------
reinit: System Label: optical                                                     
reinit: -----------------------------------------------------------------------

initatom: Reading input for the pseudopotentials and atomic orbitals ----------
 Species number:            1  Label: H Atomic number:           1
 Species number:            2  Label: C Atomic number:           6
 Species number:            3  Label: F Atomic number:           9
 Species number:            4  Label: Ag Atomic number:          47
Ground state valence configuration:   1s01
Reading pseudopotential information in formatted form from H.psf

Valence configuration for pseudopotential generation:
1s( 1.00) rc: 1.33
2p( 0.00) rc: 1.33
3d( 0.00) rc: 0.37
4f( 0.00) rc: 1.33
Ground state valence configuration:   2s02  2p02
Reading pseudopotential information in formatted form from C.psf

Valence configuration for pseudopotential generation:
2s( 2.00) rc: 1.56
2p( 2.00) rc: 1.56
3d( 0.00) rc: 1.56
4f( 0.00) rc: 1.56
Ground state valence configuration:   2s02  2p05
Reading pseudopotential information in formatted form from F.psf

Valence configuration for pseudopotential generation:
2s( 2.00) rc: 1.41
2p( 5.00) rc: 1.41
3d( 0.00) rc: 1.41
4f( 0.00) rc: 1.41
Ground state valence configuration:   5s01  4d10
Reading pseudopotential information in formatted form from Ag.psf

Valence configuration for pseudopotential generation:
5s( 1.00) rc: 2.52
5p( 0.00) rc: 2.72
4d(10.00) rc: 2.52
4f( 0.00) rc: 2.52
For H, standard SIESTA heuristics set lmxkb to 2
 (one more than the basis l, including polarization orbitals).
Use PS.lmax or PS.KBprojectors blocks to override.
For C, standard SIESTA heuristics set lmxkb to 3
 (one more than the basis l, including polarization orbitals).
Use PS.lmax or PS.KBprojectors blocks to override.
For F, standard SIESTA heuristics set lmxkb to 3
 (one more than the basis l, including polarization orbitals).
Use PS.lmax or PS.KBprojectors blocks to override.
For Ag, standard SIESTA heuristics set lmxkb to 3
 (one more than the basis l, including polarization orbitals).
Use PS.lmax or PS.KBprojectors blocks to override.

<basis_specs>
===============================================================================
H                    Z=   1    Mass=  1.0100        Charge= 0.17977+309
Lmxo=0 Lmxkb= 2    BasisType=split      Semic=F
L=0  Nsemic=0  Cnfigmx=1
          n=1  nzeta=2  polorb=1
            splnorm:   0.15000    
               vcte:    0.0000    
               rinn:    0.0000    
                rcs:    0.0000      0.0000    
            lambdas:    1.0000      1.0000    
-------------------------------------------------------------------------------
L=0  Nkbl=1  erefs: 0.17977+309
L=1  Nkbl=1  erefs: 0.17977+309
L=2  Nkbl=1  erefs: 0.17977+309
===============================================================================
</basis_specs>

atom: Called for H                     (Z =   1)

read_vps: Pseudopotential generation method:
read_vps: ATM 3.2.2 Troullier-Martins                       
Total valence charge:    1.00000

xc_check: Exchange-correlation functional:
xc_check: GGA Perdew, Burke & Ernzerhof 1996
V l=0 = -2*Zval/r beyond r=  1.2656
V l=1 = -2*Zval/r beyond r=  1.2498
V l=2 = -2*Zval/r beyond r=  0.3563
All V_l potentials equal beyond r=  1.2656
This should be close to max(r_c) in ps generation
All pots = -2*Zval/r beyond r=  1.2656

VLOCAL1: 99.0% of the norm of Vloc inside     27.100 Ry
VLOCAL1: 99.9% of the norm of Vloc inside     61.762 Ry
atom: Maximum radius for 4*pi*r*r*local-pseudopot. charge    1.48935
atom: Maximum radius for r*vlocal+2*Zval:    1.24984
GHOST: No ghost state for L =  0
GHOST: No ghost state for L =  1
GHOST: No ghost state for L =  2

KBgen: Kleinman-Bylander projectors: 
   l= 0   rc=  1.398961   el= -0.477209   Ekb= -2.001853   kbcos= -0.352188
   l= 1   rc=  1.470814   el=  0.001006   Ekb= -0.423408   kbcos= -0.024395
   l= 2   rc=  1.489346   el=  0.001895   Ekb= -0.481957   kbcos= -0.001574

KBgen: Total number of  Kleinman-Bylander projectors:    9
atom: -------------------------------------------------------------------------

atom: SANKEY-TYPE ORBITALS:
atom: Selected multiple-zeta basis: split     

SPLIT: Orbitals with angular momentum L= 0

SPLIT: Basis orbitals for state 1s

SPLIT: PAO cut-off radius determined from an
SPLIT: energy shift=  0.020000 Ry

   izeta = 1
                 lambda =    1.000000
                     rc =    4.708991
                 energy =   -0.457764
                kinetic =    0.979534
    potential(screened) =   -1.437298
       potential(ionic) =   -1.965615

   izeta = 2
                 rmatch =    3.759707
              splitnorm =    0.150000
                 energy =   -0.339003
                kinetic =    1.582546
    potential(screened) =   -1.921548
       potential(ionic) =   -2.471878

POLgen: Perturbative polarization orbital with L=  1

POLgen: Polarization orbital for state 1s

   izeta = 1
                     rc =    4.708991
                 energy =    0.764951
                kinetic =    1.476882
    potential(screened) =   -0.711931
       potential(ionic) =   -1.204335
atom: Total number of Sankey-type orbitals:  5

atm_pop: Valence configuration (for local Pseudopot. screening):
 1s( 1.00)                                                            
Vna: chval, zval:    1.00000   1.00000

Vna:  Cut-off radius for the neutral-atom potential:   4.708991

atom: _________________________________________________________________________

<basis_specs>
===============================================================================
C                    Z=   6    Mass=  12.010        Charge= 0.17977+309
Lmxo=1 Lmxkb= 3    BasisType=split      Semic=F
L=0  Nsemic=0  Cnfigmx=2
          n=1  nzeta=2  polorb=0
            splnorm:   0.15000    
               vcte:    0.0000    
               rinn:    0.0000    
                rcs:    0.0000      0.0000    
            lambdas:    1.0000      1.0000    
L=1  Nsemic=0  Cnfigmx=2
          n=1  nzeta=2  polorb=1
            splnorm:   0.15000    
               vcte:    0.0000    
               rinn:    0.0000    
                rcs:    0.0000      0.0000    
            lambdas:    1.0000      1.0000    
-------------------------------------------------------------------------------
L=0  Nkbl=1  erefs: 0.17977+309
L=1  Nkbl=1  erefs: 0.17977+309
L=2  Nkbl=1  erefs: 0.17977+309
L=3  Nkbl=1  erefs: 0.17977+309
===============================================================================
</basis_specs>

atom: Called for C                     (Z =   6)

read_vps: Pseudopotential generation method:
read_vps: ATM 3.2.2 Troullier-Martins                       
Total valence charge:    4.00000

xc_check: Exchange-correlation functional:
xc_check: GGA Perdew, Burke & Ernzerhof 1996
V l=0 = -2*Zval/r beyond r=  1.5227
V l=1 = -2*Zval/r beyond r=  1.5227
V l=2 = -2*Zval/r beyond r=  1.5227
V l=3 = -2*Zval/r beyond r=  1.5227
All V_l potentials equal beyond r=  1.4851
This should be close to max(r_c) in ps generation
All pots = -2*Zval/r beyond r=  1.5227

VLOCAL1: 99.0% of the norm of Vloc inside     19.682 Ry
VLOCAL1: 99.9% of the norm of Vloc inside     44.856 Ry
atom: Maximum radius for 4*pi*r*r*local-pseudopot. charge    1.79142
atom: Maximum radius for r*vlocal+2*Zval:    1.54183
GHOST: No ghost state for L =  0
GHOST: No ghost state for L =  1
GHOST: No ghost state for L =  2
GHOST: No ghost state for L =  3

KBgen: Kleinman-Bylander projectors: 
   l= 0   rc=  1.661951   el= -1.010689   Ekb=  5.289847   kbcos=  0.316429
   l= 1   rc=  1.661951   el= -0.388490   Ekb= -4.102504   kbcos= -0.351025
   l= 2   rc=  1.747182   el=  0.001971   Ekb= -1.006005   kbcos= -0.008530
   l= 3   rc=  1.791422   el=  0.003065   Ekb= -0.421399   kbcos= -0.001072

KBgen: Total number of  Kleinman-Bylander projectors:   16
atom: -------------------------------------------------------------------------

atom: SANKEY-TYPE ORBITALS:
atom: Selected multiple-zeta basis: split     

SPLIT: Orbitals with angular momentum L= 0

SPLIT: Basis orbitals for state 2s

SPLIT: PAO cut-off radius determined from an
SPLIT: energy shift=  0.020000 Ry

   izeta = 1
                 lambda =    1.000000
                     rc =    4.088342
                 energy =   -0.990050
                kinetic =    0.909804
    potential(screened) =   -1.899854
       potential(ionic) =   -5.513925

   izeta = 2
                 rmatch =    3.347176
              splitnorm =    0.150000
                 energy =   -0.836186
                kinetic =    1.375045
    potential(screened) =   -2.211230
       potential(ionic) =   -6.057915

SPLIT: Orbitals with angular momentum L= 1

SPLIT: Basis orbitals for state 2p

SPLIT: PAO cut-off radius determined from an
SPLIT: energy shift=  0.020000 Ry

   izeta = 1
                 lambda =    1.000000
                     rc =    4.870301
                 energy =   -0.368677
                kinetic =    2.532104
    potential(screened) =   -2.900781
       potential(ionic) =   -6.401132

   izeta = 2
                 rmatch =    3.475094
              splitnorm =    0.150000
                 energy =   -0.205777
                kinetic =    3.787472
    potential(screened) =   -3.993249
       potential(ionic) =   -7.860448

POLgen: Perturbative polarization orbital with L=  2

POLgen: Polarization orbital for state 2p

   izeta = 1
                     rc =    4.870301
                 energy =    1.296521
                kinetic =    2.641128
    potential(screened) =   -1.344607
       potential(ionic) =   -4.300412
atom: Total number of Sankey-type orbitals: 13

atm_pop: Valence configuration (for local Pseudopot. screening):
 2s( 2.00)                                                            
 2p( 2.00)                                                            
Vna: chval, zval:    4.00000   4.00000

Vna:  Cut-off radius for the neutral-atom potential:   4.870301

atom: _________________________________________________________________________

<basis_specs>
===============================================================================
F                    Z=   9    Mass=  19.000        Charge= 0.17977+309
Lmxo=1 Lmxkb= 3    BasisType=split      Semic=F
L=0  Nsemic=0  Cnfigmx=2
          n=1  nzeta=2  polorb=0
            splnorm:   0.15000    
               vcte:    0.0000    
               rinn:    0.0000    
                rcs:    0.0000      0.0000    
            lambdas:    1.0000      1.0000    
L=1  Nsemic=0  Cnfigmx=2
          n=1  nzeta=2  polorb=1
            splnorm:   0.15000    
               vcte:    0.0000    
               rinn:    0.0000    
                rcs:    0.0000      0.0000    
            lambdas:    1.0000      1.0000    
-------------------------------------------------------------------------------
L=0  Nkbl=1  erefs: 0.17977+309
L=1  Nkbl=1  erefs: 0.17977+309
L=2  Nkbl=1  erefs: 0.17977+309
L=3  Nkbl=1  erefs: 0.17977+309
===============================================================================
</basis_specs>

atom: Called for F                     (Z =   9)

read_vps: Pseudopotential generation method:
read_vps: ATM 3.2.2 Troullier-Martins                       
Total valence charge:    7.00000

xc_check: Exchange-correlation functional:
xc_check: GGA Perdew, Burke & Ernzerhof 1996
V l=0 = -2*Zval/r beyond r=  1.3199
V l=1 = -2*Zval/r beyond r=  1.3199
V l=2 = -2*Zval/r beyond r=  1.3199
V l=3 = -2*Zval/r beyond r=  1.3199
All V_l potentials equal beyond r=  1.3199
This should be close to max(r_c) in ps generation
All pots = -2*Zval/r beyond r=  1.3199

VLOCAL1: 99.0% of the norm of Vloc inside     24.916 Ry
VLOCAL1: 99.9% of the norm of Vloc inside     56.784 Ry
atom: Maximum radius for 4*pi*r*r*local-pseudopot. charge    1.61221
atom: Maximum radius for r*vlocal+2*Zval:    1.38760
GHOST: No ghost state for L =  0
GHOST: No ghost state for L =  1
GHOST: No ghost state for L =  2
GHOST: No ghost state for L =  3

KBgen: Kleinman-Bylander projectors: 
   l= 0   rc=  1.495695   el= -2.197581   Ekb=  5.601452   kbcos=  0.238748
   l= 1   rc=  1.458760   el= -0.816694   Ekb= -9.171639   kbcos= -0.518972
   l= 2   rc=  1.552860   el=  0.001997   Ekb= -1.845583   kbcos= -0.004774
   l= 3   rc=  1.592177   el=  0.003102   Ekb= -0.701684   kbcos= -0.000616

KBgen: Total number of  Kleinman-Bylander projectors:   16
atom: -------------------------------------------------------------------------

atom: SANKEY-TYPE ORBITALS:
atom: Selected multiple-zeta basis: split     

SPLIT: Orbitals with angular momentum L= 0

SPLIT: Basis orbitals for state 2s

SPLIT: PAO cut-off radius determined from an
SPLIT: energy shift=  0.020000 Ry

   izeta = 1
                 lambda =    1.000000
                     rc =    3.012240
                 energy =   -2.180114
                kinetic =    2.050927
    potential(screened) =   -4.231041
       potential(ionic) =  -15.028689

   izeta = 2
                 rmatch =    2.203728
              splitnorm =    0.150000
                 energy =   -1.860487
                kinetic =    3.102500
    potential(screened) =   -4.962987
       potential(ionic) =  -16.601125

SPLIT: Orbitals with angular momentum L= 1

SPLIT: Basis orbitals for state 2p

SPLIT: PAO cut-off radius determined from an
SPLIT: energy shift=  0.020000 Ry

   izeta = 1
                 lambda =    1.000000
                     rc =    3.588372
                 energy =   -0.798309
                kinetic =    6.054328
    potential(screened) =   -6.852638
       potential(ionic) =  -17.288549

   izeta = 2
                 rmatch =    2.259523
              splitnorm =    0.150000
                 energy =   -0.439465
                kinetic =    8.943362
    potential(screened) =   -9.382827
       potential(ionic) =  -20.998650

POLgen: Perturbative polarization orbital with L=  2

POLgen: Polarization orbital for state 2p

   izeta = 1
                     rc =    3.588372
                 energy =    3.121679
                kinetic =    6.160101
    potential(screened) =   -3.038422
       potential(ionic) =  -11.529161
atom: Total number of Sankey-type orbitals: 13

atm_pop: Valence configuration (for local Pseudopot. screening):
 2s( 2.00)                                                            
 2p( 5.00)                                                            
Vna: chval, zval:    7.00000   7.00000

Vna:  Cut-off radius for the neutral-atom potential:   3.588372

atom: _________________________________________________________________________

<basis_specs>
===============================================================================
Ag                   Z=  47    Mass=  107.87        Charge= 0.17977+309
Lmxo=2 Lmxkb= 3    BasisType=split      Semic=F
L=0  Nsemic=0  Cnfigmx=5
          n=1  nzeta=2  polorb=1
            splnorm:   0.15000    
               vcte:    0.0000    
               rinn:    0.0000    
                rcs:    0.0000      0.0000    
            lambdas:    1.0000      1.0000    
L=1  Nsemic=0  Cnfigmx=5
L=2  Nsemic=0  Cnfigmx=4
          n=1  nzeta=2  polorb=0
            splnorm:   0.15000    
               vcte:    0.0000    
               rinn:    0.0000    
                rcs:    0.0000      0.0000    
            lambdas:    1.0000      1.0000    
-------------------------------------------------------------------------------
L=0  Nkbl=1  erefs: 0.17977+309
L=1  Nkbl=1  erefs: 0.17977+309
L=2  Nkbl=1  erefs: 0.17977+309
L=3  Nkbl=1  erefs: 0.17977+309
===============================================================================
</basis_specs>

atom: Called for Ag                    (Z =  47)

read_vps: Pseudopotential generation method:
read_vps: ATM 3.2.2 Troullier-Martins                       
Total valence charge:   11.00000

xc_check: Exchange-correlation functional:
xc_check: GGA Perdew, Burke & Ernzerhof 1996
V l=0 = -2*Zval/r beyond r=  2.4592
V l=1 = -2*Zval/r beyond r=  2.6507
V l=2 = -2*Zval/r beyond r=  2.4592
V l=3 = -2*Zval/r beyond r=  2.4592
All V_l potentials equal beyond r=  2.6507
This should be close to max(r_c) in ps generation
All pots = -2*Zval/r beyond r=  2.6507

VLOCAL1: 99.0% of the norm of Vloc inside      6.178 Ry
VLOCAL1: 99.9% of the norm of Vloc inside     14.079 Ry
atom: Maximum radius for 4*pi*r*r*local-pseudopot. charge    3.19739
atom: Maximum radius for r*vlocal+2*Zval:    2.82168
GHOST: No ghost state for L =  0
GHOST: No ghost state for L =  1
GHOST: No ghost state for L =  2
GHOST: No ghost state for L =  3

KBgen: Kleinman-Bylander projectors: 
   l= 0   rc=  2.966357   el= -0.323666   Ekb=  3.565490   kbcos=  0.247453
   l= 1   rc=  3.003670   el= -0.054265   Ekb=  1.619308   kbcos=  0.223076
   l= 2   rc=  2.786631   el= -0.547066   Ekb= -7.840816   kbcos= -0.714112
   l= 3   rc=  3.079709   el=  0.002953   Ekb= -2.732950   kbcos= -0.012571

KBgen: Total number of  Kleinman-Bylander projectors:   16
atom: -------------------------------------------------------------------------

atom: SANKEY-TYPE ORBITALS:
atom: Selected multiple-zeta basis: split     

SPLIT: Orbitals with angular momentum L= 0

SPLIT: Basis orbitals for state 5s

SPLIT: PAO cut-off radius determined from an
SPLIT: energy shift=  0.020000 Ry

   izeta = 1
                 lambda =    1.000000
                     rc =    6.684855
                 energy =   -0.305483
                kinetic =    0.327133
    potential(screened) =   -0.632616
       potential(ionic) =   -8.088030

   izeta = 2
                 rmatch =    6.279837
              splitnorm =    0.150000
                 energy =   -0.253539
                kinetic =    0.499634
    potential(screened) =   -0.753173
       potential(ionic) =   -8.691029

SPLIT: Orbitals with angular momentum L= 2

SPLIT: Basis orbitals for state 4d

SPLIT: PAO cut-off radius determined from an
SPLIT: energy shift=  0.020000 Ry

   izeta = 1
                 lambda =    1.000000
                     rc =    3.954440
                 energy =   -0.527442
                kinetic =    6.210364
    potential(screened) =   -6.737807
       potential(ionic) =  -18.733043

   izeta = 2
                 rmatch =    2.490121
              splitnorm =    0.150000
                 energy =   -0.148928
                kinetic =    8.576261
    potential(screened) =   -8.725189
       potential(ionic) =  -21.658221

POLgen: Perturbative polarization orbital with L=  1

POLgen: Polarization orbital for state 5s

   izeta = 1
                     rc =    6.684855
                 energy =   -0.001728
                kinetic =    0.597115
    potential(screened) =   -0.598843
       potential(ionic) =   -7.554613
atom: Total number of Sankey-type orbitals: 15

atm_pop: Valence configuration (for local Pseudopot. screening):
 5s( 1.00)                                                            
 5p( 0.00)                                                            
 4d(10.00)                                                            
Vna: chval, zval:   11.00000  11.00000

Vna:  Cut-off radius for the neutral-atom potential:   6.684855

atom: _________________________________________________________________________

prinput: Basis input ----------------------------------------------------------

PAO.BasisType split     

%block ChemicalSpeciesLabel
    1    1 H                       # Species index, atomic number, species label
    2    6 C                       # Species index, atomic number, species label
    3    9 F                       # Species index, atomic number, species label
    4   47 Ag                      # Species index, atomic number, species label
%endblock ChemicalSpeciesLabel

%block PAO.Basis                 # Define Basis set
H                     1                    # Species label, number of l-shells
 n=1   0   2 P   1                   # n, l, Nzeta, Polarization, NzetaPol
   4.709      3.760   
   1.000      1.000   
C                     2                    # Species label, number of l-shells
 n=2   0   2                         # n, l, Nzeta 
   4.088      3.347   
   1.000      1.000   
 n=2   1   2 P   1                   # n, l, Nzeta, Polarization, NzetaPol
   4.870      3.475   
   1.000      1.000   
F                     2                    # Species label, number of l-shells
 n=2   0   2                         # n, l, Nzeta 
   3.012      2.204   
   1.000      1.000   
 n=2   1   2 P   1                   # n, l, Nzeta, Polarization, NzetaPol
   3.588      2.260   
   1.000      1.000   
Ag                    2                    # Species label, number of l-shells
 n=5   0   2 P   1                   # n, l, Nzeta, Polarization, NzetaPol
   6.685      6.280   
   1.000      1.000   
 n=4   2   2                         # n, l, Nzeta 
   3.954      2.490   
   1.000      1.000   
%endblock PAO.Basis

prinput: ----------------------------------------------------------------------

Dumping basis to NetCDF file H.ion.nc
Dumping basis to NetCDF file C.ion.nc
Dumping basis to NetCDF file F.ion.nc
Dumping basis to NetCDF file Ag.ion.nc
coor:   Atomic-coordinates input format  =     Cartesian coordinates
coor:                                          (in Angstroms)

siesta: WARNING: XV file not found

siesta: Atomic coordinates (Bohr) and species
siesta:     14.69641  35.04310  22.68050  2        1
siesta:     15.41450  36.77220  21.82635  1        2
siesta:     12.72920  35.29632  23.20207  1        3
siesta:     14.84569  33.50297  21.32746  1        4
siesta:     16.32346  34.43649  25.00109  2        5
siesta:     18.50799  33.40092  24.14693  3        6
siesta:     17.07935  36.67204  26.03288  3        7
siesta:     15.21797  32.76975  27.07790  2        8
siesta:     13.22998  33.27053  27.26309  1        9
siesta:     15.28411  30.83278  26.37492  1       10
siesta:     16.35937  32.71684  29.76320  2       11
siesta:     15.38049  34.71617  31.06333  3       12
siesta:     15.28033  30.66838  30.92538  3       13
siesta:     19.23364  32.57889  30.19784  2       14
siesta:     19.88749  30.76664  29.48541  1       15
siesta:     20.08969  33.99808  29.02243  1       16
siesta:     20.39582  32.89070  32.86046  2       17
siesta:     22.94506  32.56377  32.61669  3       18
siesta:     20.20118  35.38325  33.55021  3       19
siesta:     19.48308  31.30711  35.14136  2       20
siesta:     18.08469  32.43716  36.13347  1       21
siesta:     18.53822  29.61391  34.35901  1       22
siesta:     21.41250  30.37925  37.15959  2       23
siesta:     23.00931  28.74275  35.99174  3       24
siesta:     22.91294  32.34457  37.81532  3       25
siesta:     20.36937  29.14148  39.60301  2       26
siesta:     19.19207  30.60602  40.51008  1       27
siesta:     19.15805  27.59568  39.04554  1       28
siesta:     22.21563  28.16638  41.65525  2       29
siesta:     24.63826  28.61046  40.92770  3       30
siesta:     21.91705  29.65926  43.70560  3       31
siesta:     22.10414  25.41494  42.65869  2       32
siesta:     23.74253  25.14093  43.90591  1       33
siesta:     20.42606  25.31667  43.83033  1       34
siesta:     22.08335  23.11325  40.86912  2       35
siesta:     22.06067  21.00053  42.34689  3       36
siesta:     19.78922  23.04900  39.67482  3       37
siesta:     24.11480  22.77310  38.80554  2       38
siesta:     23.57623  21.13282  37.68115  1       39
siesta:     23.93906  24.41149  37.61501  1       40
siesta:     26.96829  22.48586  39.51986  2       41
siesta:     28.27976  22.57846  37.30699  3       42
siesta:     27.71851  24.61747  40.73306  3       43
siesta:     27.95095  20.16905  41.00140  2       44
siesta:     26.46374  18.75554  41.06377  1       45
siesta:     29.47407  19.34702  39.92804  1       46
siesta:     28.91471  20.46763  43.73206  2       47
siesta:     26.95128  21.35769  45.16069  3       48
siesta:     29.25486  18.07713  44.64669  3       49
siesta:     31.24663  22.09658  44.45394  2       50
siesta:     30.75908  24.03355  44.09867  1       51
siesta:     31.53009  21.84902  46.47405  1       52
siesta:     33.83178  21.64115  43.15191  2       53
siesta:     35.63647  22.42728  44.80920  3       54
siesta:     34.17571  19.10325  42.92893  3       55
siesta:     34.41193  22.74286  40.51952  2       56
siesta:     35.17349  21.20463  39.39325  1       57
siesta:     32.58456  23.27577  39.70505  1       58
siesta:     36.14292  25.07857  40.23417  2       59
siesta:     35.96906  25.78154  37.76052  3       60
siesta:     35.05254  27.03443  41.50785  3       61
siesta:     38.98696  25.09368  40.97117  2       62
siesta:     39.81655  26.75853  40.07166  1       63
siesta:     39.04743  25.39982  43.01396  1       64
siesta:     40.79731  22.89215  40.27386  2       65
siesta:     39.85434  21.63926  38.25563  3       66
siesta:     43.02152  23.96363  39.48584  3       67
siesta:     41.41147  20.81534  42.22973  2       68
siesta:     39.63513  20.09725  42.99129  1       69
siesta:     42.28642  19.27143  41.20172  1       70
siesta:     43.13680  21.38793  44.51252  2       71
siesta:     45.33266  22.35736  43.59411  3       72
siesta:     42.06532  23.33246  45.85233  3       73
siesta:     43.76607  19.33002  46.44760  2       74
siesta:     45.32132  18.25287  45.67281  1       75
siesta:     44.44449  20.32212  48.13134  1       76
siesta:     41.75729  17.41383  47.31876  2       77
siesta:     40.99385  16.02299  45.28164  3       78
siesta:     42.95916  15.69607  48.80031  3       79
siesta:     39.42159  18.36248  48.78519  2       80
siesta:     40.06410  18.95396  50.65413  1       81
siesta:     38.73940  20.07268  47.88946  1       82
siesta:     37.08400  16.65227  49.11967  2       83
siesta:     35.90103  16.46330  46.85200  3       84
siesta:     37.84178  14.24476  49.61667  3       85
siesta:     34.99774  17.30990  51.05475  2       86
siesta:     34.46484  19.26766  50.71460  1       87
siesta:     33.35935  16.13827  50.58421  1       88
siesta:     35.45695  17.08502  53.91958  2       89
siesta:     37.72840  18.22831  54.49594  3       90
siesta:     33.71462  18.54767  55.11010  3       91
siesta:     35.44939  14.49043  55.24805  2       92
siesta:     35.56466  13.02967  53.79486  1       93
siesta:     37.16715  14.43751  56.41024  1       94
siesta:     33.27242  13.73642  57.05652  2       95
siesta:     31.06522  14.21831  55.88300  3       96
siesta:     33.31022  11.16640  57.22849  3       97
siesta:     33.13447  14.79467  59.76450  2       98
siesta:     32.62802  16.78644  59.60388  1       99
siesta:     31.56033  13.82713  60.67913  1      100
siesta:     35.46072  14.70019  61.51817  2      101
siesta:     36.92904  12.73676  60.78118  3      102
siesta:     36.83834  16.80534  60.99471  3      103
siesta:     35.12813  14.55279  64.40000  2      104
siesta:     33.83745  16.06646  64.93857  1      105
siesta:     34.23618  12.76888  64.83842  1      106
siesta:     37.44872  14.73987  66.14989  2      107
siesta:     37.80399  17.27966  66.58642  3      108
siesta:     36.72117  13.85926  68.47047  3      109
siesta:     40.06788  13.56635  65.45636  2      110
siesta:     40.54787  14.08602  63.52884  1      111
siesta:     41.44360  14.51121  66.69224  1      112
siesta:     40.64236  10.70719  65.68880  2      113
siesta:     43.13491  10.56357  66.27461  3      114
siesta:     39.42726   9.78501  67.74104  3      115
siesta:     40.24740   8.85715  63.47404  2      116
siesta:     40.46850   9.94752  61.75438  1      117
siesta:     41.83099   7.53434  63.57986  1      118
siesta:     37.84745   7.24521  63.21703  2      119
siesta:     38.27642   5.12305  64.62866  3      120
siesta:     35.92938   8.41495  64.43780  3      121
siesta:     36.80054   6.37594  60.62244  2      122
siesta:     34.95617   5.54635  60.98149  1      123
siesta:     36.49063   8.06913  59.47537  1      124
siesta:     38.30854   4.53157  58.96326  2      125
siesta:     40.49874   5.65028  58.23571  3      126
siesta:     39.04176   2.59837  60.46559  3      127
siesta:     37.12557   3.39584  56.56142  2      128
siesta:     35.26419   4.26889  56.36488  1      129
siesta:     38.29909   3.97788  54.97027  1      130
siesta:     36.75708   0.51401  56.32898  2      131
siesta:     35.85001   0.09638  53.96682  3      132
siesta:     39.13057  -0.57637  56.35166  3      133
siesta:     35.02609  -0.88439  58.22060  2      134
siesta:     35.93883  -0.84282  60.06875  1      135
siesta:     33.27242   0.19275  58.33965  1      136
siesta:     34.27776  -3.66607  57.77840  2      137
siesta:     36.36212  -4.91707  57.00550  3      138
siesta:     33.78454  -4.66385  60.10087  3      139
siesta:     32.09890  -4.35015  55.95481  2      140
siesta:     30.50775  -3.08781  56.31764  1      141
siesta:     32.77920  -3.94008  54.06698  1      142
siesta:     31.03309  -7.08837  55.90001  2      143
siesta:     32.76597  -8.70975  56.90912  3      144
siesta:     29.02998  -7.11293  57.51195  3      145
siesta:     30.11091  -8.25244  53.39045  2      146
siesta:     28.82022  -9.75855  53.92714  1      147
siesta:     29.00920  -6.83136  52.37000  1      148
siesta:     32.07811  -9.37305  51.55364  2      149
siesta:     34.06800  -7.73276  51.49317  3      150
siesta:     33.04376 -11.51033  52.54575  3      151
siesta:     31.37325  -9.95508  48.77574  2      152
siesta:     30.85357  -8.19197  47.86111  1      153
siesta:     33.11746 -10.58436  47.89702  1      154
siesta:     29.30399 -11.90906  48.13134  2      155
siesta:     27.22341 -11.37994  49.54675  3      156
siesta:     28.49141 -11.54434  45.70682  3      157
siesta:     29.81800 -14.77200  48.46960  2      158
siesta:     30.60791 -14.99687  50.35177  1      159
siesta:     27.95284 -15.69040  48.39213  1      160
siesta:     31.51309 -16.25921  46.60255  2      161
siesta:     29.93138 -17.66895  45.17392  3      162
siesta:     32.56377 -14.64349  44.90558  3      163
siesta:     33.62391 -18.02421  47.60789  2      164
siesta:     32.76031 -19.30734  48.99495  1      165
siesta:     34.24941 -19.13348  45.99028  1      166
siesta:     36.04087 -16.94896  48.87023  2      167
siesta:     36.98951 -15.07435  47.39435  3      168
siesta:     35.38136 -15.80568  51.03585  3      169
siesta:     38.28776 -18.71774  49.51840  2      170
siesta:     38.84334 -19.61159  47.73639  1      171
siesta:     39.86568 -17.49698  50.08721  1      172
siesta:     38.00808 -20.89849  51.46671  2      173
siesta:     36.24874 -22.53310  50.53130  3      174
siesta:     40.22662 -22.21941  51.42703  3      175
siesta:     37.30510 -20.38448  54.26540  2      176
siesta:     36.76464 -18.42106  54.48650  1      177
siesta:     35.59112 -21.47675  54.68492  1      178
siesta:     39.16081 -20.97030  56.45181  2      179
siesta:     37.90414 -20.50354  58.64200  3      180
siesta:     39.53120 -23.51198  56.55386  3      181
siesta:     41.79509 -19.72308  56.67291  2      182
siesta:     42.58877 -20.33724  58.47193  1      183
siesta:     42.92515 -20.53188  55.14223  1      184
siesta:     42.14280 -16.82046  56.52362  2      185
siesta:     44.66181 -16.35559  56.84487  3      186
siesta:     41.64013 -16.16661  54.08398  3      187
siesta:     40.70850 -15.00065  58.31130  2      188
siesta:     38.74507 -15.60725  58.47193  1      189
siesta:     41.55131 -15.18585  60.18213  1      190
siesta:     40.62724 -12.13016  57.75005  2      191
siesta:     39.46884 -11.05679  59.81552  3      192
siesta:     43.00074 -11.22498  57.96359  3      193
siesta:     39.26663 -11.07947  55.39545  2      194
siesta:     38.01753 -12.55157  54.67925  1      195
siesta:     38.05343  -9.54879  56.11733  1      196
siesta:     40.68960 -10.00799  53.08054  2      197
siesta:     39.42348 -10.84136  51.02263  3      198
siesta:     40.28142  -7.46253  53.02196  3      199
siesta:     43.50340 -10.52200  52.49850  2      200
siesta:     43.99851 -12.30590  53.39045  1      201
siesta:     43.64702 -10.82625  50.45004  1      202
siesta:     45.63879  -8.68330  53.23550  2      203
siesta:     47.66269 -10.12516  53.92336  3      204
siesta:     46.38713  -7.52111  51.08499  3      205
siesta:     45.35345  -6.67641  55.34254  2      206
siesta:     43.44860  -6.78979  56.17591  1      207
siesta:     46.69515  -7.20175  56.82031  1      208
siesta:     45.80698  -3.83615  54.78129  2      209
siesta:     45.47061  -2.63428  57.03385  3      210
siesta:     48.29386  -3.52245  54.32398  3      211
siesta:     44.25551  -2.37539  52.78385  2      212
siesta:     44.33110  -3.47710  51.04908  1      213
siesta:     42.31098  -2.36972  53.42825  1      214
siesta:     44.88668   0.37228  52.05253  2      215
siesta:     43.33333   0.99400  50.08910  3      216
siesta:     44.04764   1.86327  53.97816  3      217
siesta:     47.56820   1.29068  51.35144  2      218
siesta:     47.41514   3.27301  50.80909  1      219
siesta:     48.67558   1.29068  53.07865  1      220
siesta:     49.17258  -0.05102  49.28597  2      221
siesta:     51.61411   0.34771  49.93792  3      222
siesta:     48.88912  -2.59082  49.50329  3      223
siesta:     48.97983   0.65007  46.45894  2      224
siesta:     48.44504   2.63428  46.40035  1      225
siesta:     50.86200   0.51590  45.62935  1      226
siesta:     47.12412  -0.74833  44.65992  2      227
siesta:     44.73361  -0.17574  45.39502  3      228
siesta:     47.31687   0.39495  42.35823  3      229
siesta:     47.19782  -3.63583  44.25173  2      230
siesta:     46.58744  -4.51456  46.02241  1      231
siesta:     45.77485  -4.09693  42.82877  1      232
siesta:     49.64879  -5.00967  43.44860  2      233
siesta:     50.45193  -4.00622  41.23762  3      234
siesta:     51.49317  -4.45598  45.13424  3      235
siesta:     49.54297  -7.92740  43.13302  2      236
siesta:     48.30898  -8.68896  44.58622  1      237
siesta:     48.62456  -8.30157  41.32077  1      238
siesta:     52.00528  -9.50344  43.16136  2      239
siesta:     51.33443 -11.90717  42.47539  3      240
siesta:     53.45281  -8.69274  41.16959  3      241
siesta:     53.71171  -9.60548  45.52541  2      242
siesta:     55.20270 -10.93774  45.10778  1      243
siesta:     54.59421  -7.74788  45.71438  1      244
siesta:     52.67992 -10.30846  48.18804  2      245
siesta:     50.16658 -10.82247  47.98017  3      246
siesta:     53.68336 -12.57991  48.87590  3      247
siesta:     52.94070  -8.45653  50.43114  2      248
siesta:     51.64246  -6.87483  50.12501  1      249
siesta:     52.23016  -9.44485  52.11489  1      250
siesta:     55.55608  -7.42663  51.13223  2      251
siesta:     56.21560  -8.40551  53.40179  3      252
siesta:     57.23416  -8.46409  49.53919  3      253
siesta:     56.03796  -4.55046  51.16058  2      254
siesta:     57.85021  -4.27078  50.18926  1      255
siesta:     54.60366  -3.62828  49.99272  1      256
siesta:     56.16835  -3.04624  53.65313  2      257
siesta:     58.61744  -3.12939  54.43925  3      258
siesta:     55.81875  -0.59904  52.99361  3      259
siesta:     54.42791  -3.73410  55.86600  2      260
siesta:     52.73472  -4.58826  55.05530  1      261
siesta:     55.37278  -5.20431  56.91290  1      262
siesta:     53.60399  -1.70264  57.77651  2      263
siesta:     52.02985  -0.09260  56.53307  3      264
siesta:     52.04686  -2.87427  59.45648  3      265
siesta:     55.60143  -0.12094  59.18814  2      266
siesta:     57.27195  -1.29824  59.45459  1      267
siesta:     56.15512   1.41541  57.89934  1      268
siesta:     54.94570   1.06203  61.76950  2      269
siesta:     56.82031   2.71743  62.31374  3      270
siesta:     52.86322   2.58137  61.44636  3      271
siesta:     54.45059  -0.51401  64.16946  2      272
siesta:     54.21437   0.82770  65.71714  1      273
siesta:     52.62889  -1.48910  63.93891  1      274
siesta:     56.35543  -2.55869  65.01983  2      275
siesta:     55.64490  -4.79802  63.95403  3      276
siesta:     58.62311  -2.05224  63.88978  3      277
siesta:     56.85432  -3.03301  67.84119  2      278
siesta:     58.44547  -4.35015  67.96025  1      279
siesta:     57.44203  -1.22076  68.63488  1      280
siesta:     54.73783  -4.09504  69.55896  2      281
siesta:     52.50228  -3.87583  68.27016  3      282
siesta:     55.10255  -6.62349  69.83486  3      283
siesta:     54.31453  -2.93097  72.20079  2      284
siesta:     54.18225  -0.90140  71.95135  1      285
siesta:     52.44748  -3.61127  72.85653  1      286
siesta:     56.24772  -3.41474  74.34375  2      287
siesta:     58.60988  -3.09537  73.39888  3      288
siesta:     56.01339  -1.50989  76.06529  3      289
siesta:     56.25150  -5.96020  75.80072  2      290
siesta:     55.03074  -7.31513  74.85019  1      291
siesta:     58.15823  -6.69530  75.61175  1      292
siesta:     55.61088  -6.03390  78.62965  2      293
siesta:     55.48616  -8.51889  79.29483  3      294
siesta:     57.67068  -5.13628  79.84852  3      295
siesta:     53.32809  -4.68652  79.84474  2      296
siesta:     53.10888  -5.52178  81.71557  1      297
siesta:     53.89501  -2.72310  80.09418  1      298
siesta:     50.69948  -4.73566  78.57484  2      299
siesta:     50.34988  -2.41885  77.46368  3      300
siesta:     50.72783  -6.39862  76.59441  3      301
siesta:     48.32599  -5.29501  80.16221  2      302
siesta:     48.66614  -7.03923  81.20156  1      303
siesta:     48.14268  -3.73788  81.51337  1      304
siesta:     45.71249  -5.62005  78.85074  2      305
siesta:     45.81454  -7.73465  77.33896  3      306
siesta:     44.08355  -6.27389  80.72346  3      307
siesta:     44.43693  -3.51300  77.31062  2      308
siesta:     45.61801  -3.25978  75.65900  1      309
siesta:     42.61712  -4.24244  76.63409  1      310
siesta:     43.92481  -0.85227  78.41044  2      311
siesta:     46.08477   0.04724  79.49703  3      312
siesta:     43.66403   0.72566  76.38843  3      313
siesta:     41.66092  -0.37228  80.16410  2      314
siesta:     41.27730   1.64973  80.07340  1      315
siesta:     40.08111  -1.36816  79.31373  1      316
siesta:     41.75918  -1.13762  82.98169  2      317
siesta:     40.34945  -3.24466  83.26704  3      318
siesta:     44.11945  -1.96910  83.56561  3      319
siesta:     41.04487   0.68030  85.17566  2      320
siesta:     41.31510  -0.31936  86.94444  1      321
siesta:     42.43004   2.21476  85.13787  1      322
siesta:     38.38602   1.94075  85.34762  2      323
siesta:     38.76964   4.42196  85.92021  3      324
siesta:     37.37313   2.02201  82.99869  3      325
siesta:     36.34890   0.93919  87.17121  2      326
siesta:     34.51586   1.53257  86.47768  1      327
siesta:     36.44716  -1.11305  87.03704  1      328
siesta:     36.47551   1.68942  89.98501  2      329
siesta:     38.86979   1.31903  90.83161  3      330
siesta:     36.12024   4.26133  90.09840  3      331
siesta:     34.68972   0.46109  91.93332  2      332
siesta:     34.93160   1.53824  93.67565  1      333
siesta:     32.76597   0.77668  91.26247  1      334
siesta:     34.93916  -2.33948  92.60796  2      335
siesta:     33.21006  -2.74010  94.45233  3      336
siesta:     34.05099  -3.74544  90.63697  3      337
siesta:     37.47139  -3.47899  93.55849  2      338
siesta:     38.63925  -1.90673  94.22745  1      339
siesta:     37.05754  -4.63928  95.21011  1      340
siesta:     39.13813  -5.05880  91.75569  2      341
siesta:     39.89969  -3.55269  89.83951  3      342
siesta:     41.31510  -5.61816  92.99157  3      343
siesta:     38.20650  -7.58536  90.65776  2      344
siesta:     39.31955  -9.08392  91.52136  1      345
siesta:     36.29220  -7.86315  91.31916  1      346
siesta:     38.14414  -8.03134  87.76081  2      347
siesta:     36.62480 -10.09492  87.35451  3      348
siesta:     36.83645  -6.10571  86.68366  3      349
siesta:     40.58377  -8.36204  86.21312  2      350
siesta:     40.02253  -8.73054  84.27048  1      351
siesta:     41.58344  -6.54601  86.22635  1      352
siesta:     42.52263 -10.40862  87.00303  2      353
siesta:     44.34055 -10.43507  85.17944  3      354
siesta:     43.76418  -9.53745  89.08550  3      355
siesta:     41.72706 -13.20541  87.49624  2      356
siesta:     39.84300 -13.16195  88.30316  1      357
siesta:     41.65336 -14.12949  85.66510  1      358
siesta:     43.30498 -14.92506  89.25558  2      359
siesta:     42.46594 -14.52633  91.64230  3      360
siesta:     42.56988 -17.33446  88.71323  3      361
siesta:     46.20193 -14.81546  89.27070  2      362
siesta:     46.77641 -14.15783  87.41688  1      363
siesta:     46.71783 -13.37360  90.64453  1      364
siesta:     47.80631 -17.15116  89.93210  2      365
siesta:     47.89324 -18.66294  87.85718  3      366
siesta:     50.24406 -16.39905  90.23446  3      367
siesta:     47.12601 -18.81412  92.21300  2      368
siesta:     45.12101 -19.22230  92.14119  1      369
siesta:     48.10111 -20.60180  91.93143  1      370
siesta:     47.69482 -17.87682  94.91720  2      371
siesta:     47.18270 -15.34647  94.98334  3      372
siesta:     45.92981 -18.89160  96.49512  3      373
siesta:     50.34610 -18.30767  96.05104  2      374
siesta:     51.35711 -19.55300  94.77547  1      375
siesta:     51.30231 -16.46897  96.03403  1      376
siesta:     50.58610 -19.41127  98.76280  2      377
siesta:     53.10888 -19.53411  99.35428  3      378
siesta:     49.67336 -17.64438 100.41064  3      379
siesta:     49.36722 -21.95863  99.49412  2      380
siesta:     50.14201 -22.42350 101.32338  1      381
siesta:     47.34144 -21.64682  99.70010  1      382
siesta:     49.68848 -24.32645  97.84061  2      383
siesta:     48.88912 -23.79922  95.43688  3      384
siesta:     52.22260 -24.72708  97.58172  3      385
siesta:     48.50551 -26.86247  98.67209  2      386
siesta:     48.59622 -28.10969  97.02614  1      387
siesta:     49.70549 -27.69584 100.11395  1      388
siesta:     45.77107 -26.95884  99.66609  2      389
siesta:     45.64068 -25.58690 101.86951  3      390
siesta:     44.28197 -25.63603  98.01068  3      391
siesta:     44.41614 -29.53265 100.10072  2      392
siesta:     42.55476 -29.09424 100.87173  1      393
siesta:     44.07977 -30.37358  98.26769  1      394
siesta:     45.59344 -31.55466 101.82793  2      395
siesta:     47.22050 -30.34712 103.38507  3      396
siesta:     43.74151 -32.45228 103.38129  3      397
siesta:     47.03530 -33.84690 100.69977  2      398
siesta:     48.65291 -33.10801  99.60561  1      399
siesta:     47.80631 -34.92215 102.27580  1      400
siesta:     45.69927 -35.71584  98.90264  2      401
siesta:     45.38746 -34.55366  96.65575  3      402
siesta:     47.37923 -37.65281  98.46422  3      403
siesta:     43.16703 -37.00085  99.55081  2      404
siesta:     43.45994 -39.02664  99.33349  1      405
siesta:     42.78531 -36.61724 101.55203  1      406
siesta:     40.75196 -36.33000  98.04848  2      407
siesta:     38.72617 -37.28998  99.29570  3      408
siesta:     40.43071 -33.78454  98.30359  3      409
siesta:     40.44204 -36.94416  95.21200  2      410
siesta:     38.43327 -36.96684  94.85673  1      411
siesta:     41.21683 -35.39080  94.16509  1      412
siesta:     41.53431 -39.38380  94.02525  2      413
siesta:     43.86434 -39.80899  95.01358  3      414
siesta:     40.09434 -41.31321  94.90586  3      415
siesta:     41.67604 -39.71072  91.12452  2      416
siesta:     41.91036 -41.72328  90.79382  1      417
siesta:     39.84678 -39.16648  90.34028  1      418
siesta:     43.75852 -38.39925  89.53904  2      419
siesta:     45.74651 -40.03197  89.34251  3      420
siesta:     42.82121 -38.25941  87.15798  3      421
siesta:     44.72228 -35.75363  90.21934  2      422
siesta:     43.21805 -34.39870  89.77714  1      423
siesta:     45.03408 -35.71962  92.24324  1      424
siesta:     47.13735 -34.67649  89.02125  2      425
siesta:     47.01263 -34.96373  86.47390  3      426
siesta:     47.08821 -32.13103  89.31794  3      427
siesta:     49.79997 -35.66104  89.79982  2      428
siesta:     50.07965 -37.43927  88.80960  1      429
siesta:     51.15302 -34.30232  89.09495  1      430
siesta:     50.47838 -36.19394  92.59662  2      431
siesta:     49.45982 -34.30232  93.99501  3      432
siesta:     49.27274 -38.37846  93.28259  3      433
siesta:     53.24872 -36.37724  93.38463  2      434
siesta:     54.36555 -35.87646  91.72734  1      435
siesta:     53.54541 -34.93727  94.80760  1      436
siesta:     54.32020 -38.87924  94.44666  2      437
siesta:     53.67580 -40.74629  92.79882  3      438
siesta:     56.86377 -38.63736  94.24257  3      439
siesta:     53.62100 -39.82410  97.09606  2      440
siesta:     51.96560 -38.83956  97.75368  1      441
siesta:     53.08810 -41.80832  96.83716  1      442
siesta:     55.59388 -39.76174  99.27680  2      443
siesta:     54.40524 -40.47417 101.45944  3      444
siesta:     57.24928 -41.67037  98.83272  3      445
siesta:     57.16802 -37.38825  99.93254  2      446
siesta:     57.74438 -37.61123 101.89218  1      447
siesta:     58.89901 -37.46195  98.79114  1      448
siesta:     56.08898 -34.68027  99.82860  2      449
siesta:     53.56242 -34.82578  99.54514  3      450
siesta:     56.40835 -33.69005 102.19643  3      451
siesta:     57.20392 -32.75653  97.93699  2      452
siesta:     59.10499 -32.30677  98.65130  1      453
siesta:     57.41746 -33.70895  96.11907  1      454
siesta:     55.88489 -30.18839  97.37574  2      455
siesta:     53.31864 -30.43972  97.53825  3      456
siesta:     56.54252 -28.57267  99.24657  3      457
siesta:     56.44236 -28.80322  94.86996  2      458
siesta:     56.05497 -26.81522  95.26113  1      459
siesta:     58.47004 -28.92983  94.51469  1      460
siesta:     55.14223 -29.44950  92.32450  2      461
siesta:     56.24394 -31.58678  91.51380  3      462
siesta:     52.70070 -30.12225  92.70055  3      463
siesta:     55.23483 -27.57489  90.08328  2      464
siesta:     57.18503 -26.92105  90.02659  1      465
siesta:     54.88901 -28.67850  88.39008  1      466
siesta:     53.47549 -25.25053  89.94722  2      467
siesta:     51.03018 -26.08012  90.12674  3      468
siesta:     53.76084 -23.87859  92.09962  3      469
siesta:     53.56620 -23.36647  87.70978  2      470
siesta:     52.06387 -23.89182  86.42666  1      471
siesta:     53.10133 -21.51643  88.48268  1      472
siesta:     55.97749 -23.08112  86.09407  2      473
siesta:     57.90312 -22.34413  87.63230  3      474
siesta:     56.76551 -25.38470  85.28904  3      475
siesta:     55.98505 -21.32557  83.76025  2      476
siesta:     57.72171 -21.73186  82.69256  1      477
siesta:     54.45626 -21.91138  82.51492  1      478
siesta:     55.83009 -18.41539  84.04560  2      479
siesta:     57.06786 -17.74076  86.20934  3      480
siesta:     57.29652 -17.44974  82.15210  3      481
siesta:     53.29975 -16.96975  84.06828  2      482
siesta:     52.55330 -17.07179  85.99202  1      483
siesta:     53.78352 -14.98175  83.72435  1      484
siesta:     51.13034 -17.66328  82.22391  2      485
siesta:     52.16402 -18.41350  79.97702  3      486
siesta:     50.03241 -19.78544  83.18956  3      487
siesta:     48.94582 -15.79056  81.61541  2      488
siesta:     47.58143 -16.81479  80.44378  1      489
siesta:     47.99150 -15.38238  83.37853  1      490
siesta:     49.41825 -13.22053  80.26993  2      491
siesta:     47.12601 -12.07158  80.01482  3      492
siesta:     50.67681 -11.69174  81.93856  3      493
siesta:     50.80909 -13.04478  77.69990  2      494
siesta:     51.13034 -11.01900  77.36542  1      495
siesta:     52.67047 -13.91784  77.92667  1      496
siesta:     49.66958 -14.19185  75.25648  2      497
siesta:     51.54986 -15.45419  73.99981  3      498
siesta:     48.08410 -16.08347  75.94434  3      499
siesta:     48.18615 -12.56290  73.35731  2      500
siesta:     47.16380 -13.88949  72.15166  1      501
siesta:     46.77452 -11.50844  74.43256  1      502
siesta:     49.54108 -10.71097  71.56396  2      503
siesta:     51.84277 -10.14216  72.54473  3      504
siesta:     50.09855 -11.92229  69.34920  3      505
siesta:     48.30898  -8.19575  70.80051  2      506
siesta:     47.99717  -7.08648  72.51071  1      507
siesta:     49.67336  -7.20175  69.64966  1      508
siesta:     45.78997  -8.16362  69.33786  2      509
siesta:     44.35000 -10.06091  70.25438  3      510
siesta:     44.55031  -6.00555  69.96903  3      511
siesta:     45.75218  -8.39984  66.43335  2      512
siesta:     46.65358 -10.20641  66.00249  1      513
siesta:     43.79442  -8.55479  65.83808  1      514
siesta:     47.08632  -6.35704  64.79684  2      515
siesta:     47.92536  -4.45598  66.28595  3      516
siesta:     49.19715  -7.45875  63.82175  3      517
siesta:     45.68793  -5.16462  62.52917  2      518
siesta:     47.04664  -3.90229  61.61077  1      519
siesta:     45.18526  -6.67074  61.21392  1      520
siesta:     43.24451  -3.61883  62.99594  2      521
siesta:     41.34722  -4.91707  61.86399  3      522
siesta:     42.67381  -3.76434  65.50360  3      523
siesta:     42.93648  -0.84471  62.17957  2      524
siesta:     42.47917  -0.87116  60.17268  1      525
siesta:     41.26030  -0.14551  63.16034  1      526
siesta:     45.00574   1.17352  62.63122  2      527
siesta:     43.93426   2.93853  64.16001  3      528
siesta:     46.90302   0.14173  64.03906  3      529
siesta:     46.23028   2.57003  60.37866  2      530
siesta:     47.86489   1.46454  59.76072  1      531
siesta:     44.85078   2.53412  58.85932  1      532
siesta:     47.09388   5.34415  60.67535  2      533
siesta:     48.72472   5.79768  58.74027  3      534
siesta:     45.07754   6.81058  60.08765  3      535
siesta:     48.21638   6.35137  63.19436  2      536
siesta:     46.67814   6.52145  64.54362  1      537
siesta:     49.53163   4.93408  63.91434  1      538
siesta:     49.59399   8.91573  63.32475  2      539
siesta:     48.12378  10.70908  62.19658  3      540
siesta:     49.58643   9.61493  65.79273  3      541
siesta:     52.30386   9.22376  62.31185  2      542
siesta:     52.53063   8.03323  60.65078  1      543
siesta:     52.47016  11.16262  61.67691  1      544
siesta:     54.58665   8.69085  64.04095  2      545
siesta:     54.04997   6.64239  65.45258  3      546
siesta:     56.53118   7.92362  62.51972  3      547
siesta:     55.60521  10.78845  65.84753  2      548
siesta:     54.01595  12.05079  66.25571  1      549
siesta:     56.14001   9.87193  67.60876  1      550
siesta:     57.83509  12.47031  64.98960  2      551
siesta:     57.45148  12.95597  62.49138  3      552
siesta:     57.53840  14.80979  66.04029  3      553
siesta:     60.60165  11.62560  65.35053  2      554
siesta:     60.90023  10.00043  64.12977  1      555
siesta:     61.75061  13.15061  64.55307  1      556
siesta:     61.68258  11.04356  68.00938  2      557
siesta:     64.04662  12.00166  68.11710  3      558
siesta:     60.36355  12.42495  69.73848  3      559
siesta:     61.79785   8.30724  69.02227  2      560
siesta:     62.50461   8.41306  70.94602  1      561
siesta:     59.85710   7.60615  69.07897  1      562
siesta:     63.38522   6.28901  67.63899  2      563
siesta:     61.92446   5.34982  65.73982  3      564
siesta:     65.35998   7.48332  66.48248  3      565
siesta:     64.47748   3.99110  69.07897  2      566
siesta:     66.09320   3.28246  67.97914  1      567
siesta:     65.17857   4.69030  70.87232  1      568
siesta:     62.75405   1.71209  69.61943  2      569
siesta:     60.60354   2.65696  70.72303  3      570
siesta:     61.97926   0.74266  67.39144  3      571
siesta:     63.61010  -0.53479  71.26160  2      572
siesta:     62.88633  -0.19464  73.15700  1      573
siesta:     62.64634  -2.19019  70.51894  1      574
siesta:     66.39744  -1.25100  71.59230  2      575
siesta:     67.26861  -2.21098  69.37565  3      576
siesta:     67.80151   0.88439  71.95891  3      577
siesta:     67.14389  -3.10104  73.75604  2      578
siesta:     69.17345  -3.38072  73.65211  1      579
siesta:     66.72248  -2.11838  75.51160  1      580
siesta:     65.90800  -5.73343  73.92423  2      581
siesta:     63.76127  -5.47454  75.34719  3      582
siesta:     65.11243  -6.45153  71.59608  3      583
siesta:     67.35931  -7.98977  75.05806  2      584
siesta:     67.76561  -7.56269  77.02716  1      585
siesta:     66.08753  -9.60548  75.03727  1      586
siesta:     69.87832  -8.87794  73.92045  2      587
siesta:     71.70758  -7.38694  74.88988  3      588
siesta:     70.36965 -11.17962  74.90877  3      589
siesta:     70.38288  -8.93652  71.05562  2      590
siesta:     69.97470  -7.06380  70.32430  1      591
siesta:     72.40489  -9.23510  70.84775  1      592
siesta:     69.05062 -10.88483  69.35298  2      593
siesta:     70.70791 -12.82747  68.97881  3      594
siesta:     67.15711 -11.96575  70.66634  3      595
siesta:     68.01316 -10.06280  66.75649  2      596
siesta:     66.44280  -8.78345  67.08152  1      597
siesta:     69.48337  -8.99321  65.82297  1      598
siesta:     66.98326 -11.99599  64.80062  2      599
siesta:     64.62677 -11.21931  64.12599  3      600
siesta:     68.35898 -11.70875  62.63878  3      601
siesta:     66.83019 -14.88160  65.36187  2      602
siesta:     68.72748 -15.50332  65.85698  1      603
siesta:     65.64533 -15.15561  67.01538  1      604
siesta:     65.92312 -16.76566  63.33987  2      605
siesta:     67.99804 -17.87871  62.32697  3      606
siesta:     64.77795 -18.71397  64.61165  3      607
siesta:     64.15056 -15.86426  61.18369  2      608
siesta:     62.56130 -14.84758  62.06619  1      609
siesta:     65.21070 -14.53011  60.06686  1      610
siesta:     62.98649 -17.79367  59.31664  2      611
siesta:     63.48726 -16.97731  56.93747  3      612
siesta:     64.29040 -19.99898  59.48860  3      613
siesta:     60.16134 -18.47019  59.44325  2      614
siesta:     59.68891 -19.36781  57.65179  1      615
siesta:     59.96103 -19.84591  60.95692  1      616
siesta:     58.09209 -16.44440  59.90245  2      617
siesta:     55.78663 -17.51588  59.48671  3      618
siesta:     58.05052 -15.92284  62.40445  3      619
siesta:     58.07509 -13.90461  58.44736  2      620
siesta:     60.04607 -13.49643  58.01650  1      621
siesta:     57.08109 -14.17673  56.67102  1      622
siesta:     56.99416 -11.50466  59.73427  2      623
siesta:     58.53051 -10.93018  61.75438  3      624
siesta:     57.35510  -9.55068  58.09587  3      625
siesta:     54.23705 -11.36671  60.69047  2      626
siesta:     53.98572 -12.91250  62.00005  1      627
siesta:     54.02351  -9.60737  61.74116  1      628
siesta:     52.05064 -11.44230  58.75161  2      629
siesta:     51.95615  -9.15006  57.62533  3      630
siesta:     52.65535 -13.04478  56.82409  3      631
siesta:     49.34077 -12.09614  59.56986  2      632
siesta:     48.45260 -10.31413  60.14245  1      633
siesta:     48.33543 -12.74999  57.90501  1      634
siesta:     48.79464 -14.04823  61.66179  2      635
siesta:     49.78674 -13.15439  63.87088  3      636
siesta:     46.23973 -13.98209  62.07753  3      637
siesta:     49.56565 -16.84880  61.30463  2      638
siesta:     47.97639 -17.75776  60.37110  1      639
siesta:     51.17947 -16.88849  60.01773  1      640
siesta:     50.18359 -18.52877  63.59687  2      641
siesta:     48.04820 -18.80845  64.94235  3      642
siesta:     50.69759 -20.88337  62.67279  3      643
siesta:     52.31520 -17.78800  65.49226  2      644
siesta:     53.80052 -16.87526  64.36599  1      645
siesta:     51.54797 -16.37259  66.74893  1      646
siesta:     53.55675 -19.82135  67.16089  2      647
siesta:     55.23672 -21.09880  65.70769  3      648
siesta:     55.01940 -18.60247  68.88054  3      649
siesta:     51.96560 -21.78855  68.59142  2      650
siesta:     50.93192 -22.86381  67.16089  1      651
siesta:     53.29219 -23.12459  69.46258  1      652
siesta:     50.05509 -20.98164  70.64366  2      653
siesta:     49.56943 -18.45507  70.40555  3      654
siesta:     47.81198 -22.10603  70.12965  3      655
siesta:     50.64657 -21.52966  73.42723  2      656
siesta:     52.66669 -21.29344  73.63699  1      657
siesta:     49.67147 -20.10480  74.53461  1      658
siesta:     49.97383 -24.13181  74.55162  2      659
siesta:     50.37823 -25.88359  72.74126  3      660
siesta:     51.73883 -24.71196  76.33363  3      661
siesta:     47.37167 -24.60046  75.71947  2      662
siesta:     45.95060 -23.84457  74.42878  1      663
siesta:     47.12412 -26.64704  75.80261  1      664
siesta:     46.74428 -23.59891  78.38209  2      665
siesta:     47.57765 -21.16872  78.59374  3      666
siesta:     44.17237 -23.43639  78.50681  3      667
siesta:     47.64379 -24.95951  80.79527  2      668
siesta:     49.69037 -24.91227  80.76315  1      669
siesta:     47.03341 -23.79544  82.36753  1      670
siesta:     46.82554 -27.67694  81.43022  2      671
siesta:     44.24795 -27.78843  81.49069  3      672
siesta:     47.49829 -29.22463  79.47624  3      673
siesta:     47.73072 -28.94117  83.85474  2      674
siesta:     47.42270 -27.55222  85.35707  1      675
siesta:     46.47972 -30.54177  84.21946  1      676
siesta:     50.48405 -29.87469  84.08718  2      677
siesta:     52.08276 -27.99441  83.34262  3      678
siesta:     50.96215 -30.13358  86.56461  3      679
siesta:     51.26829 -32.34834  82.76815  2      680
siesta:     51.18514 -33.83745  84.17788  1      681
siesta:     49.83210 -32.78676  81.32440  1      682
siesta:     53.85344 -32.56755  81.43589  2      683
siesta:     53.84966 -34.87113  80.23780  3      684
siesta:     53.91958 -30.87625  79.50081  3      685
siesta:     56.34410 -32.32378  82.90988  2      686
siesta:     57.86722 -32.21795  81.51526  1      687
siesta:     56.28929 -30.49074  83.88120  1      688
siesta:     57.08109 -34.30043  84.92622  2      689
siesta:     55.32364 -34.20973  86.79327  3      690
siesta:     56.81275 -36.64369  83.95679  3      691
siesta:     59.69269 -34.30610  86.21123  2      692
siesta:     59.42057 -34.95239  88.13686  1      693
siesta:     60.84354 -35.71773  85.21912  1      694
siesta:     61.26117 -31.83623  86.34162  2      695
siesta:     61.69202 -31.09546  83.91521  3      696
siesta:     59.77962 -29.98052  87.31672  3      697
siesta:     63.83308 -31.69261  87.71923  2      698
siesta:     65.08786 -30.63814  86.43233  1      699
siesta:     63.57797 -30.56444  89.40487  1      700
siesta:     65.27306 -34.10579  88.51859  2      701
siesta:     65.37321 -35.60056  86.43611  3      702
siesta:     67.71269 -33.43305  88.90031  3      703
siesta:     64.46425 -35.81599  90.75413  2      704
siesta:     63.14333 -37.20683  89.99257  1      705
siesta:     66.15745 -36.88369  91.34562  1      706
siesta:     63.24349 -34.71617  93.18999  2      707
siesta:     61.09487 -33.44439  92.52103  3      708
siesta:     62.32319 -36.72306  94.45611  3      709
siesta:     64.81763 -33.18171  95.10617  2      710
siesta:     64.05607 -33.63147  96.98645  1      711
siesta:     66.70169 -33.95461  95.04192  1      712
siesta:     65.11243 -30.30366  95.05893  2      713
siesta:     63.23971 -29.25864  93.64919  3      714
siesta:     64.63055 -29.50620  97.44566  3      715
siesta:     67.62010 -29.02054  94.25202  2      716
siesta:     68.33441 -30.06555  92.63441  1      717
siesta:     67.16467 -27.13459  93.57739  1      718
siesta:     69.92934 -28.78054  96.05104  2      719
siesta:     70.57941 -31.15215  96.73890  3      720
siesta:     71.90978 -27.93583  94.64130  3      721
siesta:     69.81407 -27.08357  98.43020  2      722
siesta:     68.09631 -27.59001  99.46199  1      723
siesta:     71.41656 -27.60135  99.60939  1      724
siesta:     69.78950 -24.18661  98.21289  2      725
siesta:     69.31140 -23.59702  95.76002  3      726
siesta:     67.73726 -23.30789  99.49790  3      727
siesta:     72.07607 -22.61625  99.08783  2      728
siesta:     72.53150 -23.20963 101.00590  1      729
siesta:     73.68045 -23.18506  97.89541  1      730
siesta:     71.91167 -19.69473  99.06326  2      731
siesta:     74.30406 -18.82546  98.70988  3      732
siesta:     70.67767 -18.96908  96.90519  3      733
siesta:     70.74759 -18.26421 101.33282  2      734
siesta:     68.75393 -18.75176 101.41975  1      735
siesta:     71.63388 -19.02955 103.03547  1      736
siesta:     70.96680 -15.37482 101.56715  2      737
siesta:     71.92112 -14.45830  99.35428  3      738
siesta:     68.57252 -14.42995 101.62573  3      739
siesta:     72.39166 -14.11626 103.75356  2      740
siesta:     72.06851 -12.08858 103.55514  1      741
siesta:     71.46002 -14.72664 105.48833  1      742
siesta:     75.27349 -14.49421 104.15797  2      743
siesta:     75.73458 -16.97353 104.69276  3      744
siesta:     76.49614 -14.17106 101.92809  3      745
siesta:     76.69079 -12.91628 106.17053  2      746
siesta:     78.37831 -13.97075 106.71099  1      747
siesta:     77.28038 -11.18340 105.24834  1      748
siesta:     75.37743 -12.13583 108.67252  2      749
siesta:     73.79383 -10.18752 108.16608  3      750
siesta:     73.84675 -14.08602 109.38684  3      751
siesta:     76.95157 -11.41395 111.05169  2      752
siesta:     75.67222 -10.38027 112.30269  1      753
siesta:     77.44101 -13.17329 112.02301  1      754
siesta:     79.41388  -9.83603 110.85705  2      755
siesta:     81.30172 -11.42718 110.11816  3      756
siesta:     79.14743  -8.22409 108.88795  3      757
siesta:     80.37764  -8.31291 113.16818  2      758
siesta:     80.83874  -9.66406 114.63083  1      759
siesta:     82.16721  -7.42096 112.58426  1      760
siesta:     78.75437  -6.21909 114.41918  2      761
siesta:     76.76637  -7.33025 115.65884  3      762
siesta:     80.20379  -5.29879 116.33159  3      763
siesta:     77.82651  -3.94008 112.84126  2      764
siesta:     78.50681  -2.29980 113.85038  1      765
siesta:     78.70146  -3.98732 110.94964  1      766
siesta:     74.95980  -3.49599 112.41796  2      767
siesta:     73.84675  -5.78823 111.98333  3      768
siesta:     73.89777  -2.70042 114.59682  3      769
siesta:     73.99604  -1.75934 110.31659  2      770
siesta:     74.04895  -2.82892 108.56859  1      771
siesta:     72.01182  -1.38706 110.74555  1      772
siesta:     75.23570   0.82392 109.70242  2      773
siesta:     77.72447   0.43842 109.25078  3      774
siesta:     74.34375   1.59871 107.41774  3      775
siesta:     75.05806   3.08025 111.54680  2      776
siesta:     75.58719   2.36972 113.41574  1      777
siesta:     76.49992   4.45976 110.98177  1      778
siesta:     72.55606   4.53157 111.93041  2      779
siesta:     70.58319   3.24088 110.87595  3      780
siesta:     72.07229   4.40117 114.45887  3      781
siesta:     72.38221   7.35104 111.16696  2      782
siesta:     70.90444   8.19764 112.32348  1      783
siesta:     74.16233   8.25244 111.73388  1      784
siesta:     71.90033   8.16929 108.40418  2      785
siesta:     73.60297   9.98910 107.88451  3      786
siesta:     72.50126   6.19263 106.84705  3      787
siesta:     69.31140   9.25777 107.58026  2      788
siesta:     68.06229   7.66284 107.31003  1      789
siesta:     68.56307  10.35381 109.14685  1      790
siesta:     69.02794  10.93963 105.19921  2      791
siesta:     69.60431  13.34714 105.87762  3      792
siesta:     70.80807  10.28011 103.48900  3      793
siesta:     66.47114  11.10026 103.83104  2      794
siesta:     64.96881  11.00010 105.25590  1      795
siesta:     66.41445  13.00510 103.02035  1      796
siesta:     65.71336   9.22754 101.72400  2      797
siesta:     63.44380   9.97776 100.81315  3      798
siesta:     67.29695   9.59414  99.73412  3      799
siesta:     65.49793   6.32870 102.17942  2      800
siesta:     65.49982   5.43674 100.33694  1      801
siesta:     67.23081   5.70698 103.10917  1      802
siesta:     63.20569   5.24588 103.65152  2      803
siesta:     62.68980   6.88805 105.53747  3      804
siesta:     61.14589   5.41407 102.12651  3      805
siesta:     63.24349   2.53412 104.75134  2      806
siesta:     61.77895   2.52468 106.17241  1      807
siesta:     62.64634   1.27557 103.25090  1      808
siesta:     65.67557   1.39462 105.92675  2      809
siesta:     67.31585   0.87305 104.04269  3      810
siesta:     66.82263   3.23899 107.29302  3      811
siesta:     65.49037  -0.95809 107.66341  2      812
siesta:     66.35020  -0.36661 109.41708  1      813
siesta:     63.50427  -1.29824 108.03002  1      814
siesta:     66.71870  -3.51489 106.95665  2      815
siesta:     69.22636  -3.36182 107.50845  3      816
siesta:     65.83053  -5.26100 108.64229  3      817
siesta:     66.53728  -4.69975 104.30725  2      818
siesta:     67.90356  -3.74544 103.09783  1      819
siesta:     67.17979  -6.66507 104.50757  1      820
siesta:     64.03906  -4.79991 102.79169  2      821
siesta:     62.19280  -3.62072 104.14285  3      822
siesta:     64.33953  -3.24466 100.75835  3      823
siesta:     62.89956  -7.30379 101.86195  2      824
siesta:     62.38555  -8.36015 103.55892  1      825
siesta:     61.13266  -6.83325 100.87929  1      826
siesta:     64.33386  -9.15195 100.09883  2      827
siesta:     66.86610  -8.84392 100.45599  3      828
siesta:     63.88600 -11.50088 100.94165  3      829
siesta:     63.83686  -9.24832  97.23401  2      830
siesta:     64.89700 -10.84892  96.51969  1      831
siesta:     61.81864  -9.67540  97.01291  1      832
siesta:     64.46236  -6.96175  95.49924  2      833
siesta:     62.74460  -5.12305  95.93387  3      834
siesta:     66.66578  -5.97910  96.33828  3      835
siesta:     64.75338  -7.25088  92.60796  2      836
siesta:     65.18046  -5.34982  91.89553  1      837
siesta:     66.42201  -8.43574  92.31127  1      838
siesta:     62.59531  -8.35448  90.99980  2      839
siesta:     61.59376 -10.31980  92.27347  3      840
siesta:     60.67724  -6.62349  90.95633  3      841
siesta:     63.15089  -9.29557  88.28993  2      842
siesta:     64.61543  -8.09748  87.50191  1      843
siesta:     63.94269 -11.17773  88.46756  1      844
siesta:     60.97204  -9.46375  86.33784  2      845
siesta:     62.04918 -10.30846  84.15143  3      846
siesta:     59.39601 -11.39316  87.05594  3      847
siesta:     59.40356  -7.09026  85.62730  2      848
siesta:     58.22437  -7.56647  83.99269  1      849
siesta:     58.11477  -6.65940  87.19578  1      850
siesta:     60.76228  -4.59582  84.93188  2      851
siesta:     58.95381  -2.81758  84.46512  3      852
siesta:     61.99627  -3.73788  87.03326  3      853
siesta:     62.65956  -4.50511  82.73980  2      854
siesta:     64.42646  -5.31958  83.42955  1      855
siesta:     61.95281  -5.73721  81.26581  1      856
siesta:     63.37199  -1.96721  81.44912  2      857
siesta:     63.79340  -0.23622  83.33696  3      858
siesta:     65.69258  -2.23933  80.34552  3      859
siesta:     61.62777  -0.66707  79.51593  2      860
siesta:     61.40479  -2.02579  77.95690  1      861
siesta:     59.78340  -0.42519  80.38709  1      862
siesta:     62.39500   1.87083  78.32540  2      863
siesta:     64.65701   1.54202  77.09897  3      864
siesta:     60.66212   2.35271  76.52260  3      865
siesta:     62.54618   4.25755  80.00726  2      866
siesta:     60.81897   4.29913  81.12409  1      867
siesta:     64.12977   3.97221  81.30928  1      868
siesta:     62.88633   6.90506  78.84130  2      869
siesta:     64.96125   7.89717  80.02048  3      870
siesta:     63.59876   6.61026  76.37898  3      871
siesta:     60.81708   8.90061  78.90744  2      872
siesta:     59.32987   8.26189  80.20001  1      873
siesta:     61.69013  10.57113  79.76726  1      874
siesta:     59.50183   9.77367  76.44134  2      875
siesta:     57.93147  11.72576  77.08574  3      876
siesta:     61.30841  10.93018  75.02405  3      877
siesta:     58.02406   7.92740  74.75004  2      878
siesta:     57.36833   9.09526  73.17589  1      879
siesta:     59.36010   6.54412  73.96769  1      880
siesta:     55.65624   6.44775  75.68356  2      881
siesta:     56.32142   5.42541  77.94179  3      882
siesta:     53.74005   8.10882  76.24292  3      883
siesta:     54.48650   4.30480  74.10564  2      884
siesta:     55.98505   2.94042  73.74848  1      885
siesta:     53.03330   3.39206  75.26404  1      886
siesta:     53.23172   4.83959  71.51860  2      887
siesta:     53.98005   7.16018  70.70035  3      888
siesta:     54.36366   3.20687  69.88210  3      889
siesta:     50.33288   4.62227  71.17089  2      890
siesta:     49.43337   5.59548  72.74315  1      891
siesta:     49.96249   5.65028  69.44746  1      892
siesta:     49.01574   2.02957  70.87988  2      893
siesta:     50.18926   0.72377  68.99393  3      894
siesta:     49.50329   0.67652  73.02472  3      895
siesta:     46.12445   1.78390  70.39989  2      896
siesta:     45.89013   0.98833  68.50449  1      897
siesta:     45.43281   0.37228  71.74348  1      898
siesta:     44.30654   4.06480  70.64555  2      899
siesta:     44.43126   4.88872  73.05306  3      900
siesta:     45.27786   6.01500  69.26794  3      901
siesta:     41.50596   3.86638  69.84808  2      902
siesta:     40.86345   5.77312  69.35109  1      903
siesta:     41.45494   2.75333  68.11710  1      904
siesta:     39.47073   2.79302  71.64710  2      905
siesta:     37.49596   2.06736  70.20713  3      906
siesta:     40.30787   0.57448  72.57307  3      907
siesta:     38.43515   4.29535  73.89021  2      908
siesta:     37.22195   2.99333  74.93712  1      909
siesta:     40.05843   4.74699  75.04861  1      910
siesta:     36.95928   6.79735  73.44990  2      911
siesta:     38.61090   8.48865  72.45591  3      912
siesta:     35.21317   6.39673  71.59797  3      913
siesta:     35.58734   8.16173  75.64010  2      914
siesta:     37.05376   9.04612  76.79283  1      915
siesta:     34.45161   9.66217  74.81240  1      916
siesta:     33.86202   6.67829  77.47880  2      917
siesta:     35.38514   5.28368  79.00381  3      918
siesta:     32.84723   8.43574  79.04350  3      919
siesta:     31.74930   4.97187  76.40922  2      920
siesta:     31.11435   5.87705  74.66311  1      921
siesta:     32.63936   3.18041  75.89332  1      922
siesta:     29.37958   4.36527  77.99470  2      923
siesta:     29.85768   4.86038  80.45134  3      924
siesta:     27.59001   6.09059  77.36731  3      925
siesta:     28.11725   1.72910  77.86242  2      926
siesta:     26.74719   1.63650  79.42900  1      927
siesta:     27.05711   1.67997  76.07662  1      928
siesta:     29.71973  -0.70676  77.99281  2      929
siesta:     28.09457  -2.68719  78.38776  3      930
siesta:     30.67972  -1.11116  75.67411  3      931
siesta:     31.83623  -0.97132  79.94868  2      932
siesta:     32.40693   0.90329  80.58929  1      933
siesta:     31.02554  -1.95776  81.56817  1      934
siesta:     34.28343  -2.41696  79.25892  2      935
siesta:     35.60245  -0.89762  77.66400  3      936
siesta:     35.71206  -2.49633  81.41510  3      937
siesta:     34.17004  -5.07770  78.13265  2      938
siesta:     32.45606  -5.92996  78.85452  1      939
siesta:     33.95272  -4.87927  76.07285  1      940
siesta:     36.31488  -7.01656  78.55973  2      941
siesta:     38.57311  -5.80335  78.43878  3      942
siesta:     36.11835  -7.84993  81.00125  3      943
siesta:     36.48307  -9.38438  76.86086  2      944
siesta:     35.39080 -10.86026  77.81706  1      945
siesta:     35.55143  -8.95731  75.09775  1      946
siesta:     39.10790 -10.50877  76.22402  2      947
siesta:     38.76775 -12.42306  74.54028  3      948
siesta:     40.45527  -8.77400  74.89932  3      949
siesta:     40.91070 -11.47442  78.28761  2      950
siesta:     42.70594 -11.87126  77.38243  1      951
siesta:     41.22061  -9.88894  79.55750  1      952
siesta:     40.23984 -13.72887  79.99592  2      953
siesta:     42.46027 -14.65861  80.91810  3      954
siesta:     39.00396 -12.75377  82.03871  3      955
siesta:     38.66570 -15.99465  79.08507  2      956
siesta:     37.60745 -16.61826  80.71779  1      957
siesta:     37.29943 -15.34836  77.69045  1      958
siesta:     39.92237 -18.33980  77.94934  2      959
siesta:     40.70472 -19.77977  79.92222  3      960
siesta:     38.05721 -19.71363  76.79661  3      961
siesta:     42.14658 -18.04878  76.09363  2      962
siesta:     42.43382 -16.04567  75.78561  1      963
siesta:     43.83221 -18.74042  77.03850  1      964
siesta:     42.04453 -19.26010  73.45368  2      965
siesta:     44.40102 -19.05790  72.39355  3      966
siesta:     41.69493 -21.79989  73.73147  3      967
siesta:     40.06599 -18.37948  71.52427  2      968
siesta:     39.48773 -20.00087  70.42256  1      969
siesta:     38.41059 -17.69729  72.54095  1      970
siesta:     40.80109 -16.30267  69.63077  2      971
siesta:     38.59578 -15.21986  68.88243  3      972
siesta:     42.00485 -14.43940  70.95169  3      973
siesta:     42.39413 -16.80912  67.24971  2      974
siesta:     42.29965 -15.08002  66.11209  1      975
siesta:     44.35189 -17.01132  67.85631  1      976
siesta:     41.81777 -19.06168  65.46959  2      977
siesta:     39.28364 -19.19963  65.16345  3      978
siesta:     42.69271 -18.42295  63.12444  3      979
siesta:     42.77586 -21.76020  66.10454  2      980
siesta:     44.73739 -21.60147  66.70547  1      981
siesta:     41.68737 -22.47452  67.69947  1      982
siesta:     42.73239 -23.88993  64.12977  2      983
siesta:     40.44771 -23.78977  62.95436  3      984
siesta:     44.39157 -23.32301  62.22682  3      985
siesta:     43.18593 -26.64704  64.94613  2      986
siesta:     41.91414 -27.02498  66.50894  1      987
siesta:     42.59255 -27.84135  63.37199  1      988
siesta:     45.83155 -27.54844  65.76439  2      989
siesta:     46.29831 -26.57901  68.07741  3      990
siesta:     45.65391 -30.09390  66.11021  3      991
siesta:     48.10300 -26.99286  64.04095  2      992
siesta:     47.50395 -27.41427  62.09454  1      993
siesta:     48.44126 -24.96518  64.16001  1      994
siesta:     50.69570 -28.29866  64.48504  2      995
siesta:     51.20404 -28.21740  67.03617  3      996
siesta:     50.55586 -30.82522  63.96159  3      997
siesta:     53.11833 -27.34813  63.16034  2      998
siesta:     53.86289 -25.72674  64.19969  1      999
siesta:     54.50539 -28.86558  63.39656  1     1000
siesta:     53.12967 -26.62814  60.36921  2     1001
siesta:     53.06353 -28.73141  58.91601  3     1002
siesta:     50.90168 -25.49242  59.81364  3     1003
siesta:     55.25372 -24.87825  59.30152  2     1004
siesta:     55.04396 -24.88770  57.24550  1     1005
siesta:     54.89090 -22.95262  59.93269  1     1006
siesta:     58.06564 -25.46785  59.91946  2     1007
siesta:     59.51506 -24.26787  58.16201  3     1008
siesta:     58.59476 -24.24331  62.09831  3     1009
siesta:     59.04452 -28.18906  60.20859  2     1010
siesta:     58.99538 -28.65393  62.23438  1     1011
siesta:     57.69903 -29.40793  59.26183  1     1012
siesta:     61.69391 -28.95628  59.22971  2     1013
siesta:     62.10587 -31.34490  59.96670  3     1014
siesta:     61.55218 -29.11313  56.66535  3     1015
siesta:     64.09387 -27.41805  59.78718  2     1016
siesta:     65.59431 -28.36291  58.75539  1     1017
siesta:     63.85387 -25.54533  58.93113  1     1018
siesta:     65.02550 -27.10246  62.52161  2     1019
siesta:     62.99971 -26.63948  64.00883  3     1020
siesta:     65.90234 -29.39848  63.36065  3     1021
siesta:     67.06263 -25.10502  63.20003  2     1022
siesta:     66.22359 -23.25687  62.84098  1     1023
siesta:     67.40656 -25.26754  65.21825  1     1024
siesta:     69.67423 -25.12959  61.87533  2     1025
siesta:     69.98226 -27.38781  60.63945  3     1026
siesta:     69.59675 -23.36647  60.01584  3     1027
siesta:     72.08930 -24.69117  63.45703  2     1028
siesta:     71.57530 -23.39104  64.98393  1     1029
siesta:     72.56740 -26.53366  64.29229  1     1030
siesta:     74.51193 -23.65749  62.23626  2     1031
siesta:     74.84830 -24.86881  59.98938  3     1032
siesta:     74.13588 -21.21974  61.56352  3     1033
siesta:     77.02527 -23.72174  63.68946  2     1034
siesta:     77.69423 -25.65115  63.67624  1     1035
siesta:     78.37453 -22.57657  62.61043  1     1036
siesta:     77.14999 -22.78066  66.42957  2     1037
siesta:     75.53616 -24.27354  67.73537  3     1038
siesta:     79.45357 -23.37592  67.40089  3     1039
siesta:     76.61331 -19.98575  67.12877  2     1040
siesta:     78.16099 -19.35458  68.32874  1     1041
siesta:     76.77771 -18.87837  65.37888  1     1042
siesta:     74.16233 -19.13726  68.45536  2     1043
siesta:     74.61965 -16.72219  69.15456  3     1044
siesta:     72.29717 -18.99364  66.69791  3     1045
siesta:     73.09653 -20.50921  70.79484  2     1046
siesta:     72.08552 -22.18917  70.09186  1     1047
siesta:     74.70090 -21.18951  71.92112  1     1048
siesta:     71.25782 -19.14482  72.62220  2     1049
siesta:     69.08841 -18.67995  71.35231  3     1050
siesta:     70.53028 -20.90416  74.40422  3     1051
siesta:     71.99670 -16.68818  74.05273  2     1052
siesta:     72.20835 -15.20285  72.62976  1     1053
siesta:     70.38666 -16.15339  75.19223  1     1054
siesta:     74.34186 -16.58235  75.78561  2     1055
siesta:     76.30150 -17.61981  74.47036  3     1056
siesta:     75.04105 -14.14461  76.07851  3     1057
siesta:     74.26249 -17.76721  78.45768  2     1058
siesta:     72.74504 -19.16372  78.46335  1     1059
siesta:     76.02749 -18.79900  78.73358  1     1060
siesta:     73.89966 -16.07780  80.82362  2     1061
siesta:     73.85998 -17.63115  82.85319  3     1062
siesta:     76.06529 -14.70396  81.19401  3     1063
siesta:     71.62443 -14.29767  81.09574  2     1064
siesta:     70.56240 -14.32791  79.32507  1     1065
siesta:     70.40933 -15.08569  82.56973  1     1066
siesta:     72.02316 -11.46686  81.69100  2     1067
siesta:     73.37998 -10.42751  79.75025  3     1068
siesta:     69.72525 -10.29334  81.46424  3     1069
siesta:     73.26282 -10.63349  84.18166  2     1070
siesta:     72.67701 -11.96008  85.64053  1     1071
[...]
siesta:   1082   -0.190319    0.034288   -0.225913
siesta:   1083   -0.005737   -0.041590    0.811388
siesta:   1084    0.657986   -0.148120   -0.186152
siesta:   1085   -0.635408    0.162309    0.182791
siesta:   1086    1.505295    0.759578   -0.081586
siesta:   1087   -0.701116   -0.669173   -1.222896
siesta:   1088    0.501474   -0.461090    0.715558
siesta:   1089   -0.432090   -0.235761   -0.172516
siesta:   1090   -0.204866    0.102846    0.506874
siesta:   1091    0.563376   -0.198674    0.500277
siesta:   1092    0.243103   -0.150711   -1.727817
siesta:   1093   -0.914336    0.231642    1.102994
siesta:   1094    0.452059    0.342806    0.421926
siesta:   1095    0.635742   -0.288210   -0.782291
siesta:   1096   -0.437013    0.294963   -0.182984
siesta:   1097   -0.527752    0.008820   -0.126321
siesta:   1098   -1.494055   -0.076904    1.174836
siesta:   1099    1.123102   -1.381247    0.047613
siesta:   1100   -0.164180   -0.185142   -0.144002
siesta:   1101    1.005833   -0.478442   -0.302406
siesta:   1102    0.119798    0.608757   -0.252671
siesta:   1103   -0.431885   -0.544278    0.031989
siesta:   1104    0.833575    0.984822   -0.209885
siesta:   1105   -1.809155   -0.106075    0.467357
siesta:   1106   -0.332838   -0.783414   -0.015189
siesta:   1107    0.842625    0.087733   -0.161313
siesta:   1108   -0.520535    0.617786    0.333652
siesta:   1109   -0.727443   -0.112282    0.132413
siesta:   1110    0.261312   -1.218568   -1.779321
siesta:   1111    1.150701    0.493559    1.239120
siesta:   1112    0.168217    0.084938   -0.629834
siesta:   1113   -0.082058    0.301862    0.749032
siesta:   1114   -1.185586    0.339734   -0.510545
siesta:   1115   -0.192163    0.104605   -0.272027
siesta:   1116    1.622550   -0.620371    0.374899
siesta:   1117   -1.275588    0.249771    0.757642
siesta:   1118   -0.982349    0.596858    0.093571
siesta:   1119   -0.170672    0.758069   -0.949534
siesta:   1120    0.902513   -0.799495   -0.232834
siesta:   1121    0.046923    0.627616    0.399805
siesta:   1122    0.162501   -0.211240   -1.338434
siesta:   1123   -0.154717   -0.458092    1.021019
siesta:   1124   -0.439354   -0.172374   -0.072895
siesta:   1125    0.040159   -0.579736    0.072419
siesta:   1126    0.000866    0.032051    0.734214
siesta:   1127    0.256270   -0.312674   -0.369865
siesta:   1128   -0.015868    1.036097    0.871094
siesta:   1129    0.648799   -0.158131   -1.625239
siesta:   1130    0.179789   -0.055802    0.081435
siesta:   1131   -0.592389   -0.202156    0.359373
siesta:   1132   -0.213389    0.946490   -0.005355
siesta:   1133    0.212783    0.602002    0.045283
siesta:   1134    1.097729   -1.576026   -0.211143
siesta:   1135   -1.200246    0.415934    0.219767
siesta:   1136   -0.439845    0.246637   -0.038953
siesta:   1137    0.550507    0.319019   -0.145466
siesta:   1138    0.134350   -0.836167   -0.462069
siesta:   1139   -0.472297   -0.336675   -0.040092
siesta:   1140   -0.052663    1.028479    1.480968
siesta:   1141    0.606317   -0.086672   -0.922728
siesta:   1142   -0.132831   -0.090800   -0.226680
siesta:   1143   -0.277922   -0.272550    0.659380
siesta:   1144   -0.032366    0.889270    0.100822
siesta:   1145   -0.129758    0.154996    0.688219
siesta:   1146    1.275808   -0.079611   -1.296107
siesta:   1147   -0.721119   -1.048720    0.579682
siesta:   1148   -0.114929    0.498674    0.192288
siesta:   1149    0.093385    0.423338   -0.364166
siesta:   1150   -0.039170   -0.624567   -0.448489
siesta:   1151    0.325307   -0.423178   -0.933432
siesta:   1152   -0.470192   -0.715774    0.999162
siesta:   1153    0.406438    1.750859    0.198124
siesta:   1154   -0.159596    0.236234   -0.362214
siesta:   1155   -0.303049   -0.753327    0.042802
siesta:   1156   -0.271038    0.080731    0.647654
siesta:   1157   -0.109231   -0.006538    0.911429
siesta:   1158    0.243106    1.366874    0.283915
siesta:   1159    0.926530   -0.865531   -1.138092
siesta:   1160    0.026889    0.315084    0.706725
siesta:   1161    0.076919    0.332041   -0.638131
siesta:   1162   -0.238966   -0.576553   -0.317241
siesta:   1163    0.761322    1.243588    0.162933
siesta:   1164   -0.949553   -0.069662   -1.377994
siesta:   1165   -0.300649   -1.282472    1.754475
siesta:   1166   -0.159999   -1.013059   -0.099400
siesta:   1167    0.410488    0.034054    0.905801
siesta:   1168    0.176168    0.921489   -0.571590
siesta:   1169   -0.197880   -0.669193    0.188742
siesta:   1170    0.576990    1.004287    0.913496
siesta:   1171   -0.581969    0.475220   -1.327373
siesta:   1172    0.061867    0.168729   -0.553793
siesta:   1173   -0.531389   -0.290640   -0.347951
siesta:   1174    0.182536   -1.031045    0.549700
siesta:   1175    0.183556    0.869464   -0.724824
siesta:   1176   -1.000645   -0.771612   -0.205968
siesta:   1177    0.872193    0.484872    0.768300
siesta:   1178   -0.134942   -0.497709   -0.150670
siesta:   1179   -0.023294    0.257119    0.887380
siesta:   1180    0.329253    0.260118   -0.387721
siesta:   1181   -0.009253   -0.460095    0.140094
siesta:   1182   -0.217871    1.505933    0.143119
siesta:   1183    0.181973   -0.956474   -1.208345
siesta:   1184    0.616497   -0.558350   -0.525493
siesta:   1185    0.128416   -0.623862    0.164040
siesta:   1186   -0.401831    0.310261    0.829372
siesta:   1187    0.086072    0.289446   -0.686087
siesta:   1188   -0.749705   -0.504965    1.019871
siesta:   1189    0.142050    1.336294   -0.317790
siesta:   1190    0.038690   -0.302220   -0.403467
siesta:   1191    1.118555   -0.405030   -0.651671
siesta:   1192   -0.250808   -0.831748    0.235212
siesta:   1193    0.698180   -0.328827   -0.136123
siesta:   1194   -1.272606    0.004014    0.891990
siesta:   1195    0.893613    1.295311   -0.715897
siesta:   1196    1.077506   -0.261447    0.329335
siesta:   1197   -0.245493   -0.761660    0.003416
siesta:   1198   -0.926290    0.482608   -0.115668
siesta:   1199    0.465387    1.059913    0.307323
siesta:   1200    1.580470   -0.386645    0.916216
siesta:   1201   -0.978137   -0.984380   -0.758867
siesta:   1202   -0.015545    0.038071    0.695132
siesta:   1203   -0.153176    0.126329   -0.186347
siesta:   1204   -0.522145    0.880306    0.121620
siesta:   1205   -0.108641    0.109323    0.644299
siesta:   1206    0.861819   -1.292900   -0.139237
siesta:   1207   -0.479369    1.059578   -0.688105
siesta:   1208   -0.431502   -0.081146    0.566781
siesta:   1209   -0.133791   -0.706932    0.573875
siesta:   1210    0.790423    0.042072   -0.365906
siesta:   1211    0.435961    0.176292    0.268306
siesta:   1212    1.052335    0.746641   -0.715945
siesta:   1213   -1.686756    0.368651   -0.567849
siesta:   1214    0.302121   -0.571074    0.068398
siesta:   1215   -0.298683    0.262764    0.277993
siesta:   1216    0.284290   -0.520180    0.602288
siesta:   1217    0.268532   -0.923337   -0.268109
siesta:   1218   -0.170526    1.071714   -0.899640
siesta:   1219   -0.257449   -0.465974    1.064747
siesta:   1220    0.339110   -0.287774   -0.419922
siesta:   1221    0.160216    0.327872   -0.690968
siesta:   1222    0.143948    0.444184    0.314854
siesta:   1223   -0.283381   -0.023546   -0.110806
siesta:   1224    0.153547   -0.087583    1.321778
siesta:   1225   -1.046054   -1.187212   -1.039229
siesta:   1226   -0.203563    0.236250   -0.332276
siesta:   1227    0.503520    0.795897   -0.015412
siesta:   1228    0.466678   -0.489384    0.863367
siesta:   1229   -0.195100   -0.092591    0.379872
siesta:   1230   -1.437676   -0.272821   -0.657170
siesta:   1231    1.897148    0.463406   -0.074509
siesta:   1232    0.252052    0.475371   -0.382814
siesta:   1233   -0.512367   -0.593312    0.550438
siesta:   1234   -0.391814   -0.048668   -0.512830
siesta:   1235    0.286685    0.455326   -0.245099
siesta:   1236    0.852650    1.247872    1.392438
siesta:   1237   -0.475601   -1.789642    0.081187
siesta:   1238   -0.115447    0.496112   -0.060294
siesta:   1239   -0.195467   -0.411249   -0.484884
siesta:   1240   -0.082727    0.466858   -0.358160
siesta:   1241   -0.092562    0.726712    0.294200
siesta:   1242   -0.326844   -1.162925    1.169394
siesta:   1243    0.478229   -0.214625   -1.403778
siesta:   1244   -0.112994   -0.014423    0.131441
siesta:   1245   -0.276359    0.620556    0.485272
siesta:   1246    0.250069   -0.385496    0.279394
siesta:   1247   -1.261035   -1.068952    0.568920
siesta:   1248   -0.055112    0.865339    0.727735
siesta:   1249    0.625530   -0.726039   -0.529163
siesta:   1250   -0.003651    0.638228   -1.075752
siesta:   1251   -0.241374    0.099435    0.169193
siesta:   1252   -0.455337    0.548292    0.537651
siesta:   1253    0.637393    0.633564    0.078943
siesta:   1254    0.444622   -0.992531    0.809384
siesta:   1255   -0.740492    0.079465    0.369428
siesta:   1256   -0.448893   -1.127404    0.188450
siesta:   1257    1.117632    0.552476    0.315324
siesta:   1258   -0.023011   -0.415033   -0.210248
siesta:   1259   -0.062385    0.838134   -0.112364
siesta:   1260   -0.526189    0.180970   -0.074309
siesta:   1261    0.396574    0.093337   -0.078246
siesta:   1262   -0.995715   -0.124792   -0.525257
siesta:   1263    0.783266   -0.457976   -0.279481
siesta:   1264   -0.243181   -0.090758    0.153337
siesta:   1265    0.207035   -0.129267    0.247478
siesta:   1266    0.040372    0.236018    0.394370
siesta:   1267    0.147537   -0.567116    0.386428
siesta:   1268    0.536131    0.588129    0.339399
siesta:   1269   -0.487457    0.374077    0.395523
siesta:   1270   -0.273560   -0.254628    0.035011
siesta:   1271    0.431756    0.030082   -0.056723
siesta:   1272   -0.326457   -0.256442    0.004722
siesta:   1273   -0.216176    0.300583   -0.096122
siesta:   1274    0.247517   -0.456253    0.007103
siesta:   1275    0.560521    0.139960   -0.094344
siesta:   1276   -0.014132    0.016452   -0.043316
siesta:   1277   -0.093073   -0.257898   -0.378086
siesta:   1278   -0.105946    0.976516   -0.252957
siesta:   1279   -0.240462    0.083736   -0.313182
siesta:   1280    0.292137    0.148558   -0.009410
siesta:   1281   -0.533335   -0.475005   -0.557312
siesta:   1282    0.515008   -0.401402   -0.427741
siesta: ----------------------------------------
siesta:    Tot    0.032267    0.078792    0.144167

siesta: Stress tensor (static) (eV/Ang**3):
siesta:    -0.001045   -0.002203    0.004202
siesta:    -0.002206    0.001192   -0.001316
siesta:     0.004195   -0.001318   -0.002099

siesta: Cell volume =      13041.289483 Ang**3

siesta: Pressure (static):
siesta:                Solid            Molecule  Units
siesta:           0.00000709         -0.00028695  Ry/Bohr**3
siesta:           0.00065086         -0.02634721  eV/Ang**3
siesta:           1.04280544        -42.21334018  kBar
(Free)E+ p_basis*V_orbitals  =     -374625.928680
(Free)Eharris+ p_basis*V_orbitals  =     -374629.427642

Optical: Performing optical calculation: 

Optical: Polarization type       = polarized   
Optical: Minimum of energy range =   0.0001 Ry 
Optical: Maximum of energy range =   7.3498 Ry 
Optical: Gaussian broadening     =   0.0037 Ry 
Optical: Scissor operator        =   0.0000 Ry 
Optical: Number of bands         =    13386
Optical: BZ mesh dimensions      =    1   1   1

Optical: electric field direction
Optical:      0.00000     1.00000     0.00000

Optical: Checking f-sum rule  0.879948
Optical: For insulators and closed shell systems
Optical: this number should be close to 1 if an enough
Optical: number of unoccupied bands have been included

* Maximum dynamic memory allocated : Node    0 =   403 MB
* Maximum dynamic memory allocated : Node    1 =   401 MB
* Maximum dynamic memory allocated : Node    2 =   402 MB
* Maximum dynamic memory allocated : Node    3 =   404 MB
* Maximum dynamic memory allocated : Node    4 =   405 MB
* Maximum dynamic memory allocated : Node    5 =   403 MB
* Maximum dynamic memory allocated : Node    6 =   401 MB
* Maximum dynamic memory allocated : Node    7 =   404 MB
* Maximum dynamic memory allocated : Node    8 =   406 MB
* Maximum dynamic memory allocated : Node    9 =   406 MB
* Maximum dynamic memory allocated : Node   10 =   402 MB
* Maximum dynamic memory allocated : Node   11 =   407 MB
* Maximum dynamic memory allocated : Node   12 =   400 MB
* Maximum dynamic memory allocated : Node   13 =   405 MB
* Maximum dynamic memory allocated : Node   14 =   402 MB
* Maximum dynamic memory allocated : Node   15 =   401 MB
* Maximum dynamic memory allocated : Node   16 =   403 MB
* Maximum dynamic memory allocated : Node   17 =   405 MB
* Maximum dynamic memory allocated : Node   18 =   400 MB
* Maximum dynamic memory allocated : Node   19 =   402 MB
* Maximum dynamic memory allocated : Node   20 =   401 MB
* Maximum dynamic memory allocated : Node   21 =   404 MB
* Maximum dynamic memory allocated : Node   22 =   402 MB
* Maximum dynamic memory allocated : Node   23 =   402 MB
* Maximum dynamic memory allocated : Node   24 =   404 MB
* Maximum dynamic memory allocated : Node   25 =   404 MB
* Maximum dynamic memory allocated : Node   26 =   404 MB
* Maximum dynamic memory allocated : Node   27 =   409 MB
* Maximum dynamic memory allocated : Node   28 =   401 MB
* Maximum dynamic memory allocated : Node   29 =   407 MB
* Maximum dynamic memory allocated : Node   30 =   400 MB
* Maximum dynamic memory allocated : Node   31 =   406 MB
* Maximum dynamic memory allocated : Node   32 =   404 MB
* Maximum dynamic memory allocated : Node   33 =   407 MB
* Maximum dynamic memory allocated : Node   34 =   402 MB
* Maximum dynamic memory allocated : Node   35 =   404 MB
* Maximum dynamic memory allocated : Node   36 =   406 MB
* Maximum dynamic memory allocated : Node   37 =   405 MB
* Maximum dynamic memory allocated : Node   38 =   402 MB
* Maximum dynamic memory allocated : Node   39 =   402 MB
* Maximum dynamic memory allocated : Node   40 =   405 MB
* Maximum dynamic memory allocated : Node   41 =   400 MB
* Maximum dynamic memory allocated : Node   42 =   408 MB
* Maximum dynamic memory allocated : Node   43 =   403 MB
* Maximum dynamic memory allocated : Node   44 =   400 MB
* Maximum dynamic memory allocated : Node   45 =   403 MB
* Maximum dynamic memory allocated : Node   46 =   391 MB
* Maximum dynamic memory allocated : Node   47 =   384 MB
* Maximum dynamic memory allocated : Node   48 =   393 MB
* Maximum dynamic memory allocated : Node   49 =   393 MB
* Maximum dynamic memory allocated : Node   50 =   388 MB
* Maximum dynamic memory allocated : Node   51 =   385 MB
* Maximum dynamic memory allocated : Node   52 =   390 MB
* Maximum dynamic memory allocated : Node   53 =   390 MB
* Maximum dynamic memory allocated : Node   54 =   385 MB
* Maximum dynamic memory allocated : Node   55 =   392 MB
* Maximum dynamic memory allocated : Node   56 =   391 MB
* Maximum dynamic memory allocated : Node   57 =   390 MB
* Maximum dynamic memory allocated : Node   58 =   390 MB
* Maximum dynamic memory allocated : Node   59 =   389 MB
* Maximum dynamic memory allocated : Node   60 =   388 MB
* Maximum dynamic memory allocated : Node   61 =   389 MB
* Maximum dynamic memory allocated : Node   62 =   390 MB
* Maximum dynamic memory allocated : Node   63 =   386 MB

* Maximum memory occured during rdiag                         

timer: CPU execution times:
timer:  Routine       Calls   Time/call    Tot.time        %
timer:  siesta            135506265.35635506265.356   100.00
timer:  Setup             1     275.496     275.496     0.00
timer:  bands             1       0.009       0.009     0.00
timer:  writewave         1       0.027       0.027     0.00
timer:  KSV_init          1       0.005       0.005     0.00
timer:  IterMD            1 2265979.740 2265979.740     6.38
timer:  hsparse           1      33.920      33.920     0.00
timer:  overlap           1     119.690     119.690     0.00
timer:  IterSCF         199   11370.276 2262685.006     6.37
timer:  kinefsm           2      61.677     123.353     0.00
timer:  nlefsm            2     273.168     546.336     0.00
timer:  DHSCF           200    1201.429  240285.735     0.68
timer:  DHSCF1            1      50.273      50.273     0.00
timer:  DHSCF2            1    3794.299    3794.299     0.01
timer:  REORD          1202       0.108     130.120     0.00
timer:  POISON          201      38.619    7762.352     0.02
timer:  DHSCF3          200    1178.576  235715.281     0.66
timer:  rhoofd          200     431.534   86306.867     0.24
timer:  cellXC          200      81.553   16310.612     0.05
timer:  vmat            200     532.454  106490.754     0.30
timer:  MolMec            2       0.160       0.320     0.00
timer:  diagon          199    8793.356 1749877.895     4.93
timer:  r-eigvec        199    8576.425 1706708.510     4.81
timer:  r-buildHS       199       2.020     401.994     0.00
timer:  rdiag           200    8570.706 1714141.125     4.83
timer:  rdiag1          200     286.986   57397.262     0.16
timer:  rdiag2          200    1785.196  357039.148     1.01
timer:  rdiag3          200    5872.774 1174554.826     3.31
timer:  rdiag4          200     594.261  118852.121     0.33
timer:  r-buildD        199     216.423   43068.148     0.12
timer:  DHSCF4            1     649.363     649.363     0.00
timer:  dfscf             1     584.586     584.586     0.00
timer:  overfsm           1       5.891       5.891     0.00
timer:  optical           133239930.42633239930.426    93.62
timer:  phirphiopt        1    1827.234    1827.234     0.01
timer:  transrate         133229988.07833229988.078    93.59
  

elaps: ELAPSED times:
elaps:  Routine       Calls   Time/call    Tot.time        %
elaps:  siesta            1  125711.346  125711.346   100.00
elaps:  Setup             1       4.354       4.354     0.00
elaps:  bands             1       0.000       0.000     0.00
elaps:  writewave         1       0.001       0.001     0.00
elaps:  KSV_init          1       0.000       0.000     0.00
elaps:  IterMD            1   35593.749   35593.749    28.31
elaps:  hsparse           1       0.533       0.533     0.00
elaps:  overlap           1       1.452       1.452     0.00
elaps:  IterSCF         199     178.593   35539.919    28.27
elaps:  kinefsm           2       0.746       1.492     0.00
elaps:  nlefsm            2       4.317       8.634     0.01
elaps:  DHSCF           200      18.788    3757.506     2.99
elaps:  DHSCF1            1       0.770       0.770     0.00
elaps:  DHSCF2            1      60.197      60.197     0.05
elaps:  REORD          1202       0.002       2.228     0.00
elaps:  POISON          201       0.606     121.870     0.10
elaps:  DHSCF3          200      18.421    3684.132     2.93
elaps:  rhoofd          200       7.198    1439.680     1.15
elaps:  cellXC          200       1.276     255.299     0.20
elaps:  vmat            200       8.314    1662.845     1.32
elaps:  MolMec            2       0.003       0.007     0.00
elaps:  diagon          199     138.256   27512.857    21.89
elaps:  r-eigvec        199     134.852   26835.530    21.35
elaps:  r-buildHS       199       0.031       6.144     0.00
elaps:  rdiag           200     134.756   26951.204    21.44
elaps:  rdiag1          200       4.536     907.161     0.72
elaps:  rdiag2          200      28.172    5634.383     4.48
elaps:  rdiag3          200      92.243   18448.530    14.68
elaps:  rdiag4          200       9.312    1862.363     1.48
elaps:  r-buildD        199       3.395     675.624     0.54
elaps:  DHSCF4            1      11.127      11.127     0.01
elaps:  dfscf             1       9.735       9.735     0.01
elaps:  overfsm           1       0.128       0.128     0.00
elaps:  optical           1   90112.333   90112.333    71.68
elaps:  phirphiopt        1      29.831      29.831     0.02
elaps:  transrate         1   89955.741   89955.741    71.56
  
>> End of run:  26-MAR-2012  10:28:25
