Siesta Version:                                        siesta-3.2-pl-3
Architecture  : x86_64-unknown-linux-gnu--Intel
Compiler flags: mpif90 -O3 -xSSSE3 -axSSE4.2,SSE4.1 -ip
PARALLEL version
NetCDF support

* Running on   64 nodes in parallel
>> Start of run:  21-OCT-2014  22:30:25

                           ***********************       
                           *  WELCOME TO SIESTA  *       
                           ***********************       

reinit: Reading from standard input
************************** Dump of input data file ****************************
SystemName      optical
SystemLabel     optical
NumberOfAtoms   1282
NumberOfSpecies 4
MD.TypeOfRun    CG
MD.NumCGsteps   0
MD.ConstantVolume  .true.
SolutionMethod  diagon
XC.functional   GGA
XC.authors      PBE
PAO.BasisSize   DZP
DM.NumberPulay  7
DM.MixingWeight 0.1
DirectPhi       .true.
SaveMemory      .true.
MeshCutoff      500 Ry
MaxSCFiterations 200
UseSaveData     .true.
WriteMullikenPop 1
OpticalCalculation      .true.
%block Optical.Mesh
 1 1 1
%endblock Optical.Mesh
Optical.PolarizationType  polarized
%block Optical.Vector
 1.0 0.0 0.0
%endblock Optical.Vector
Optical.Broaden         0.05 eV
Optical.EnergyMinimum   0.001 eV
Optical.EnergyMaximum   100.0 eV
%block ChemicalSpeciesLabel
 1   1   H
 2   6   C
 3   9   F
 4  47   Ag
%endblock ChemicalSpeciesLabel
LatticeConstant 1.0 Ang
%block LatticeParameters
  22.534   24.472   23.649   90.0 90.0 90.0
%endblock LatticeParameters
AtomicCoordinatesFormat Ang
%block AtomicCoordinatesAndAtomicSpecies < struct.coor
%endblock AtomicCoordinatesAndAtomicSpecies
************************** End of input data file *****************************

reinit: -----------------------------------------------------------------------
reinit: System Name: optical
reinit: -----------------------------------------------------------------------
reinit: System Label: optical                                                     
reinit: -----------------------------------------------------------------------

initatom: Reading input for the pseudopotentials and atomic orbitals ----------
 Species number:            1  Label: H Atomic number:           1
 Species number:            2  Label: C Atomic number:           6
 Species number:            3  Label: F Atomic number:           9
 Species number:            4  Label: Ag Atomic number:          47
Ground state valence configuration:   1s01
Reading pseudopotential information in formatted form from H.psf

Valence configuration for pseudopotential generation:
1s( 1.00) rc: 1.33
2p( 0.00) rc: 1.33
3d( 0.00) rc: 0.37
4f( 0.00) rc: 1.33
Ground state valence configuration:   2s02  2p02
Reading pseudopotential information in formatted form from C.psf

Valence configuration for pseudopotential generation:
2s( 2.00) rc: 1.56
2p( 2.00) rc: 1.56
3d( 0.00) rc: 1.56
4f( 0.00) rc: 1.56
Ground state valence configuration:   2s02  2p05
Reading pseudopotential information in formatted form from F.psf

Valence configuration for pseudopotential generation:
2s( 2.00) rc: 1.41
2p( 5.00) rc: 1.41
3d( 0.00) rc: 1.41
4f( 0.00) rc: 1.41
Ground state valence configuration:   5s01  4d10
Reading pseudopotential information in formatted form from Ag.psf

Valence configuration for pseudopotential generation:
5s( 1.00) rc: 2.52
5p( 0.00) rc: 2.72
4d(10.00) rc: 2.52
4f( 0.00) rc: 2.52
For H, standard SIESTA heuristics set lmxkb to 2
 (one more than the basis l, including polarization orbitals).
Use PS.lmax or PS.KBprojectors blocks to override.
For C, standard SIESTA heuristics set lmxkb to 3
 (one more than the basis l, including polarization orbitals).
Use PS.lmax or PS.KBprojectors blocks to override.
For F, standard SIESTA heuristics set lmxkb to 3
 (one more than the basis l, including polarization orbitals).
Use PS.lmax or PS.KBprojectors blocks to override.
For Ag, standard SIESTA heuristics set lmxkb to 3
 (one more than the basis l, including polarization orbitals).
Use PS.lmax or PS.KBprojectors blocks to override.

<basis_specs>
===============================================================================
H                    Z=   1    Mass=  1.0100        Charge= 0.17977+309
Lmxo=0 Lmxkb= 2    BasisType=split      Semic=F
L=0  Nsemic=0  Cnfigmx=1
          n=1  nzeta=2  polorb=1
            splnorm:   0.15000    
               vcte:    0.0000    
               rinn:    0.0000    
                rcs:    0.0000      0.0000    
            lambdas:   1.00000     1.00000    
-------------------------------------------------------------------------------
L=0  Nkbl=1  erefs: 0.17977+309
L=1  Nkbl=1  erefs: 0.17977+309
L=2  Nkbl=1  erefs: 0.17977+309
===============================================================================
</basis_specs>

atom: Called for H                     (Z =   1)

read_vps: Pseudopotential generation method:
read_vps: ATM 3.2.2 Troullier-Martins                       
Total valence charge:    1.00000

xc_check: Exchange-correlation functional:
xc_check: GGA Perdew, Burke & Ernzerhof 1996
V l=0 = -2*Zval/r beyond r=  1.2656
V l=1 = -2*Zval/r beyond r=  1.2498
V l=2 = -2*Zval/r beyond r=  0.3563
All V_l potentials equal beyond r=  1.2656
This should be close to max(r_c) in ps generation
All pots = -2*Zval/r beyond r=  1.2656

VLOCAL1: 99.0% of the norm of Vloc inside     27.100 Ry
VLOCAL1: 99.9% of the norm of Vloc inside     61.762 Ry
atom: Maximum radius for 4*pi*r*r*local-pseudopot. charge    1.48935
atom: Maximum radius for r*vlocal+2*Zval:    1.24984
GHOST: No ghost state for L =  0
GHOST: No ghost state for L =  1
GHOST: No ghost state for L =  2

KBgen: Kleinman-Bylander projectors: 
   l= 0   rc=  1.398961   el= -0.477209   Ekb= -2.001853   kbcos= -0.352188
   l= 1   rc=  1.470814   el=  0.001006   Ekb= -0.423408   kbcos= -0.024395
   l= 2   rc=  1.489346   el=  0.001895   Ekb= -0.481957   kbcos= -0.001574

KBgen: Total number of  Kleinman-Bylander projectors:    9
atom: -------------------------------------------------------------------------

atom: SANKEY-TYPE ORBITALS:
atom: Selected multiple-zeta basis: split     

SPLIT: Orbitals with angular momentum L= 0

SPLIT: Basis orbitals for state 1s

SPLIT: PAO cut-off radius determined from an
SPLIT: energy shift=  0.020000 Ry

   izeta = 1
                 lambda =    1.000000
                     rc =    4.708991
                 energy =   -0.457764
                kinetic =    0.979534
    potential(screened) =   -1.437298
       potential(ionic) =   -1.965615

   izeta = 2
                 rmatch =    3.759707
              splitnorm =    0.150000
                 energy =   -0.339003
                kinetic =    1.582546
    potential(screened) =   -1.921548
       potential(ionic) =   -2.471878

POLgen: Perturbative polarization orbital with L=  1

POLgen: Polarization orbital for state 1s

   izeta = 1
                     rc =    4.708991
                 energy =    0.764951
                kinetic =    1.476882
    potential(screened) =   -0.711931
       potential(ionic) =   -1.204335
atom: Total number of Sankey-type orbitals:  5

atm_pop: Valence configuration (for local Pseudopot. screening):
 1s( 1.00)                                                            
Vna: chval, zval:    1.00000   1.00000

Vna:  Cut-off radius for the neutral-atom potential:   4.708991

atom: _________________________________________________________________________

<basis_specs>
===============================================================================
C                    Z=   6    Mass=  12.010        Charge= 0.17977+309
Lmxo=1 Lmxkb= 3    BasisType=split      Semic=F
L=0  Nsemic=0  Cnfigmx=2
          n=1  nzeta=2  polorb=0
            splnorm:   0.15000    
               vcte:    0.0000    
               rinn:    0.0000    
                rcs:    0.0000      0.0000    
            lambdas:   1.00000     1.00000    
L=1  Nsemic=0  Cnfigmx=2
          n=1  nzeta=2  polorb=1
            splnorm:   0.15000    
               vcte:    0.0000    
               rinn:    0.0000    
                rcs:    0.0000      0.0000    
            lambdas:   1.00000     1.00000    
-------------------------------------------------------------------------------
L=0  Nkbl=1  erefs: 0.17977+309
L=1  Nkbl=1  erefs: 0.17977+309
L=2  Nkbl=1  erefs: 0.17977+309
L=3  Nkbl=1  erefs: 0.17977+309
===============================================================================
</basis_specs>

atom: Called for C                     (Z =   6)

read_vps: Pseudopotential generation method:
read_vps: ATM 3.2.2 Troullier-Martins                       
Total valence charge:    4.00000

xc_check: Exchange-correlation functional:
xc_check: GGA Perdew, Burke & Ernzerhof 1996
V l=0 = -2*Zval/r beyond r=  1.5227
V l=1 = -2*Zval/r beyond r=  1.5227
V l=2 = -2*Zval/r beyond r=  1.5227
V l=3 = -2*Zval/r beyond r=  1.5227
All V_l potentials equal beyond r=  1.4851
This should be close to max(r_c) in ps generation
All pots = -2*Zval/r beyond r=  1.5227

VLOCAL1: 99.0% of the norm of Vloc inside     19.682 Ry
VLOCAL1: 99.9% of the norm of Vloc inside     44.856 Ry
atom: Maximum radius for 4*pi*r*r*local-pseudopot. charge    1.79142
atom: Maximum radius for r*vlocal+2*Zval:    1.54183
GHOST: No ghost state for L =  0
GHOST: No ghost state for L =  1
GHOST: No ghost state for L =  2
GHOST: No ghost state for L =  3

KBgen: Kleinman-Bylander projectors: 
   l= 0   rc=  1.661951   el= -1.010689   Ekb=  5.289847   kbcos=  0.316429
   l= 1   rc=  1.661951   el= -0.388490   Ekb= -4.102504   kbcos= -0.351025
   l= 2   rc=  1.747182   el=  0.001971   Ekb= -1.006005   kbcos= -0.008530
   l= 3   rc=  1.791422   el=  0.003065   Ekb= -0.421399   kbcos= -0.001072

KBgen: Total number of  Kleinman-Bylander projectors:   16
atom: -------------------------------------------------------------------------

atom: SANKEY-TYPE ORBITALS:
atom: Selected multiple-zeta basis: split     

SPLIT: Orbitals with angular momentum L= 0

SPLIT: Basis orbitals for state 2s

SPLIT: PAO cut-off radius determined from an
SPLIT: energy shift=  0.020000 Ry

   izeta = 1
                 lambda =    1.000000
                     rc =    4.088342
                 energy =   -0.990050
                kinetic =    0.909804
    potential(screened) =   -1.899854
       potential(ionic) =   -5.513925

   izeta = 2
                 rmatch =    3.347176
              splitnorm =    0.150000
                 energy =   -0.836186
                kinetic =    1.375045
    potential(screened) =   -2.211230
       potential(ionic) =   -6.057915

SPLIT: Orbitals with angular momentum L= 1

SPLIT: Basis orbitals for state 2p

SPLIT: PAO cut-off radius determined from an
SPLIT: energy shift=  0.020000 Ry

   izeta = 1
                 lambda =    1.000000
                     rc =    4.870301
                 energy =   -0.368677
                kinetic =    2.532104
    potential(screened) =   -2.900781
       potential(ionic) =   -6.401132

   izeta = 2
                 rmatch =    3.475094
              splitnorm =    0.150000
                 energy =   -0.205777
                kinetic =    3.787472
    potential(screened) =   -3.993249
       potential(ionic) =   -7.860448

POLgen: Perturbative polarization orbital with L=  2

POLgen: Polarization orbital for state 2p

   izeta = 1
                     rc =    4.870301
                 energy =    1.296521
                kinetic =    2.641128
    potential(screened) =   -1.344607
       potential(ionic) =   -4.300412
atom: Total number of Sankey-type orbitals: 13

atm_pop: Valence configuration (for local Pseudopot. screening):
 2s( 2.00)                                                            
 2p( 2.00)                                                            
Vna: chval, zval:    4.00000   4.00000

Vna:  Cut-off radius for the neutral-atom potential:   4.870301

atom: _________________________________________________________________________

<basis_specs>
===============================================================================
F                    Z=   9    Mass=  19.000        Charge= 0.17977+309
Lmxo=1 Lmxkb= 3    BasisType=split      Semic=F
L=0  Nsemic=0  Cnfigmx=2
          n=1  nzeta=2  polorb=0
            splnorm:   0.15000    
               vcte:    0.0000    
               rinn:    0.0000    
                rcs:    0.0000      0.0000    
            lambdas:   1.00000     1.00000    
L=1  Nsemic=0  Cnfigmx=2
          n=1  nzeta=2  polorb=1
            splnorm:   0.15000    
               vcte:    0.0000    
               rinn:    0.0000    
                rcs:    0.0000      0.0000    
            lambdas:   1.00000     1.00000    
-------------------------------------------------------------------------------
L=0  Nkbl=1  erefs: 0.17977+309
L=1  Nkbl=1  erefs: 0.17977+309
L=2  Nkbl=1  erefs: 0.17977+309
L=3  Nkbl=1  erefs: 0.17977+309
===============================================================================
</basis_specs>

atom: Called for F                     (Z =   9)

read_vps: Pseudopotential generation method:
read_vps: ATM 3.2.2 Troullier-Martins                       
Total valence charge:    7.00000

xc_check: Exchange-correlation functional:
xc_check: GGA Perdew, Burke & Ernzerhof 1996
V l=0 = -2*Zval/r beyond r=  1.3199
V l=1 = -2*Zval/r beyond r=  1.3199
V l=2 = -2*Zval/r beyond r=  1.3199
V l=3 = -2*Zval/r beyond r=  1.3199
All V_l potentials equal beyond r=  1.3199
This should be close to max(r_c) in ps generation
All pots = -2*Zval/r beyond r=  1.3199

VLOCAL1: 99.0% of the norm of Vloc inside     24.916 Ry
VLOCAL1: 99.9% of the norm of Vloc inside     56.784 Ry
atom: Maximum radius for 4*pi*r*r*local-pseudopot. charge    1.61221
atom: Maximum radius for r*vlocal+2*Zval:    1.38760
GHOST: No ghost state for L =  0
GHOST: No ghost state for L =  1
GHOST: No ghost state for L =  2
GHOST: No ghost state for L =  3

KBgen: Kleinman-Bylander projectors: 
   l= 0   rc=  1.495695   el= -2.197581   Ekb=  5.601452   kbcos=  0.238748
   l= 1   rc=  1.458760   el= -0.816694   Ekb= -9.171639   kbcos= -0.518972
   l= 2   rc=  1.552860   el=  0.001997   Ekb= -1.845583   kbcos= -0.004774
   l= 3   rc=  1.592177   el=  0.003102   Ekb= -0.701684   kbcos= -0.000616

KBgen: Total number of  Kleinman-Bylander projectors:   16
atom: -------------------------------------------------------------------------

atom: SANKEY-TYPE ORBITALS:
atom: Selected multiple-zeta basis: split     

SPLIT: Orbitals with angular momentum L= 0

SPLIT: Basis orbitals for state 2s

SPLIT: PAO cut-off radius determined from an
SPLIT: energy shift=  0.020000 Ry

   izeta = 1
                 lambda =    1.000000
                     rc =    3.012240
                 energy =   -2.180114
                kinetic =    2.050927
    potential(screened) =   -4.231041
       potential(ionic) =  -15.028689

   izeta = 2
                 rmatch =    2.203728
              splitnorm =    0.150000
                 energy =   -1.860487
                kinetic =    3.102500
    potential(screened) =   -4.962987
       potential(ionic) =  -16.601125

SPLIT: Orbitals with angular momentum L= 1

SPLIT: Basis orbitals for state 2p

SPLIT: PAO cut-off radius determined from an
SPLIT: energy shift=  0.020000 Ry

   izeta = 1
                 lambda =    1.000000
                     rc =    3.588372
                 energy =   -0.798309
                kinetic =    6.054328
    potential(screened) =   -6.852638
       potential(ionic) =  -17.288549

   izeta = 2
                 rmatch =    2.259523
              splitnorm =    0.150000
                 energy =   -0.439465
                kinetic =    8.943362
    potential(screened) =   -9.382827
       potential(ionic) =  -20.998650

POLgen: Perturbative polarization orbital with L=  2

POLgen: Polarization orbital for state 2p

   izeta = 1
                     rc =    3.588372
                 energy =    3.121679
                kinetic =    6.160101
    potential(screened) =   -3.038422
       potential(ionic) =  -11.529161
atom: Total number of Sankey-type orbitals: 13

atm_pop: Valence configuration (for local Pseudopot. screening):
 2s( 2.00)                                                            
 2p( 5.00)                                                            
Vna: chval, zval:    7.00000   7.00000

Vna:  Cut-off radius for the neutral-atom potential:   3.588372

atom: _________________________________________________________________________

<basis_specs>
===============================================================================
Ag                   Z=  47    Mass=  107.87        Charge= 0.17977+309
Lmxo=2 Lmxkb= 3    BasisType=split      Semic=F
L=0  Nsemic=0  Cnfigmx=5
          n=1  nzeta=2  polorb=1
            splnorm:   0.15000    
               vcte:    0.0000    
               rinn:    0.0000    
                rcs:    0.0000      0.0000    
            lambdas:   1.00000     1.00000    
L=1  Nsemic=0  Cnfigmx=5
L=2  Nsemic=0  Cnfigmx=4
          n=1  nzeta=2  polorb=0
            splnorm:   0.15000    
               vcte:    0.0000    
               rinn:    0.0000    
                rcs:    0.0000      0.0000    
            lambdas:   1.00000     1.00000    
-------------------------------------------------------------------------------
L=0  Nkbl=1  erefs: 0.17977+309
L=1  Nkbl=1  erefs: 0.17977+309
L=2  Nkbl=1  erefs: 0.17977+309
L=3  Nkbl=1  erefs: 0.17977+309
===============================================================================
</basis_specs>

atom: Called for Ag                    (Z =  47)

read_vps: Pseudopotential generation method:
read_vps: ATM 3.2.2 Troullier-Martins                       
Total valence charge:   11.00000

xc_check: Exchange-correlation functional:
xc_check: GGA Perdew, Burke & Ernzerhof 1996
V l=0 = -2*Zval/r beyond r=  2.4592
V l=1 = -2*Zval/r beyond r=  2.6507
V l=2 = -2*Zval/r beyond r=  2.4592
V l=3 = -2*Zval/r beyond r=  2.4592
All V_l potentials equal beyond r=  2.6507
This should be close to max(r_c) in ps generation
All pots = -2*Zval/r beyond r=  2.6507

VLOCAL1: 99.0% of the norm of Vloc inside      6.178 Ry
VLOCAL1: 99.9% of the norm of Vloc inside     14.079 Ry
atom: Maximum radius for 4*pi*r*r*local-pseudopot. charge    3.19739
atom: Maximum radius for r*vlocal+2*Zval:    2.82168
GHOST: No ghost state for L =  0
GHOST: No ghost state for L =  1
GHOST: No ghost state for L =  2
GHOST: No ghost state for L =  3

KBgen: Kleinman-Bylander projectors: 
   l= 0   rc=  2.966357   el= -0.323666   Ekb=  3.565490   kbcos=  0.247453
   l= 1   rc=  3.003670   el= -0.054265   Ekb=  1.619308   kbcos=  0.223076
   l= 2   rc=  2.786631   el= -0.547066   Ekb= -7.840816   kbcos= -0.714112
   l= 3   rc=  3.079709   el=  0.002953   Ekb= -2.732950   kbcos= -0.012571

KBgen: Total number of  Kleinman-Bylander projectors:   16
atom: -------------------------------------------------------------------------

atom: SANKEY-TYPE ORBITALS:
atom: Selected multiple-zeta basis: split     

SPLIT: Orbitals with angular momentum L= 0

SPLIT: Basis orbitals for state 5s

SPLIT: PAO cut-off radius determined from an
SPLIT: energy shift=  0.020000 Ry

   izeta = 1
                 lambda =    1.000000
                     rc =    6.684855
                 energy =   -0.305483
                kinetic =    0.327133
    potential(screened) =   -0.632616
       potential(ionic) =   -8.088030

   izeta = 2
                 rmatch =    6.279837
              splitnorm =    0.150000
                 energy =   -0.253539
                kinetic =    0.499634
    potential(screened) =   -0.753173
       potential(ionic) =   -8.691029

SPLIT: Orbitals with angular momentum L= 2

SPLIT: Basis orbitals for state 4d

SPLIT: PAO cut-off radius determined from an
SPLIT: energy shift=  0.020000 Ry

   izeta = 1
                 lambda =    1.000000
                     rc =    3.954440
                 energy =   -0.527442
                kinetic =    6.210364
    potential(screened) =   -6.737807
       potential(ionic) =  -18.733043

   izeta = 2
                 rmatch =    2.490121
              splitnorm =    0.150000
                 energy =   -0.148928
                kinetic =    8.576261
    potential(screened) =   -8.725189
       potential(ionic) =  -21.658221

POLgen: Perturbative polarization orbital with L=  1

POLgen: Polarization orbital for state 5s

   izeta = 1
                     rc =    6.684855
                 energy =   -0.001728
                kinetic =    0.597115
    potential(screened) =   -0.598843
       potential(ionic) =   -7.554613
atom: Total number of Sankey-type orbitals: 15

atm_pop: Valence configuration (for local Pseudopot. screening):
 5s( 1.00)                                                            
 5p( 0.00)                                                            
 4d(10.00)                                                            
Vna: chval, zval:   11.00000  11.00000

Vna:  Cut-off radius for the neutral-atom potential:   6.684855

atom: _________________________________________________________________________

prinput: Basis input ----------------------------------------------------------

PAO.BasisType split     

%block ChemicalSpeciesLabel
    1    1 H                       # Species index, atomic number, species label
    2    6 C                       # Species index, atomic number, species label
    3    9 F                       # Species index, atomic number, species label
    4   47 Ag                      # Species index, atomic number, species label
%endblock ChemicalSpeciesLabel

%block PAO.Basis                 # Define Basis set
H                     1                    # Species label, number of l-shells
 n=1   0   2 P   1                   # n, l, Nzeta, Polarization, NzetaPol
   4.709      3.760   
   1.000      1.000   
C                     2                    # Species label, number of l-shells
 n=2   0   2                         # n, l, Nzeta 
   4.088      3.347   
   1.000      1.000   
 n=2   1   2 P   1                   # n, l, Nzeta, Polarization, NzetaPol
   4.870      3.475   
   1.000      1.000   
F                     2                    # Species label, number of l-shells
 n=2   0   2                         # n, l, Nzeta 
   3.012      2.204   
   1.000      1.000   
 n=2   1   2 P   1                   # n, l, Nzeta, Polarization, NzetaPol
   3.588      2.260   
   1.000      1.000   
Ag                    2                    # Species label, number of l-shells
 n=5   0   2 P   1                   # n, l, Nzeta, Polarization, NzetaPol
   6.685      6.280   
   1.000      1.000   
 n=4   2   2                         # n, l, Nzeta 
   3.954      2.490   
   1.000      1.000   
%endblock PAO.Basis

prinput: ----------------------------------------------------------------------

Dumping basis to NetCDF file H.ion.nc
Dumping basis to NetCDF file C.ion.nc
Dumping basis to NetCDF file F.ion.nc
Dumping basis to NetCDF file Ag.ion.nc
coor:   Atomic-coordinates input format  =     Cartesian coordinates
coor:                                          (in Angstroms)

siesta: WARNING: XV file not found

siesta: Atomic coordinates (Bohr) and species
siesta:     39.63324   4.67140  39.62001  2        1
siesta:     40.64236   3.37505  38.38602  1        2
siesta:     38.87168   6.19641  38.51452  1        3
siesta:     38.10256   3.65473  40.54787  1        4
siesta:     41.41147   5.81847  41.60423  2        5
siesta:      1.17352   6.00366  40.58755  3        6
siesta:     40.70094   8.25622  41.90280  3        7
siesta:     41.65714   4.62038  44.24795  2        8
siesta:      0.33637   5.85248   0.62172  1        9
siesta:     39.78064   4.69786   0.43086  1       10
siesta:      0.07937   1.88028  44.53330  2       11
siesta:     41.40203   0.39495  42.86845  3       12
siesta:      2.50767   1.91429  43.66592  3       13
siesta:     42.58122   0.55936   2.44720  2       14
siesta:      0.10771   2.05035   3.86260  1       15
siesta:     40.72928  45.94304   2.65129  1       16
siesta:      1.95965  44.77897   3.19364  2       17
siesta:      4.29346  45.83722   3.25411  3       18
siesta:      1.51745  44.23473   5.67674  3       19
siesta:      2.15051  42.24295   1.74800  2       20
siesta:      1.95776  40.72550   3.14073  1       21
siesta:      0.51023  42.13524   0.51212  1       22
siesta:      4.48054  41.64391   0.06614  2       23
siesta:      3.85126  39.59923  43.32388  3       24
siesta:      4.82447  43.53364  43.05932  3       25
siesta:      7.08459  41.10345   1.25289  2       26
siesta:      8.25811  40.22473  44.49362  1       27
siesta:      7.90284  42.92137   1.72721  1       28
siesta:      7.19419  39.42915   3.65662  2       29
siesta:      6.37027  40.82377   5.66540  3       30
siesta:      5.39328  37.63202   3.40529  3       31
siesta:      9.66028  38.06855   4.51078  2       32
siesta:     10.36893  39.15325   6.11138  1       33
siesta:      9.08203  36.22417   5.19297  1       34
siesta:     11.90906  37.61123   2.72310  2       35
siesta:     13.34903  35.75174   3.80780  3       36
siesta:     10.98120  36.53976   0.58393  3       37
siesta:     13.65139  39.82977   2.00311  2       38
siesta:     12.69330  40.84456   0.49322  1       39
siesta:     13.75532  41.05999   3.63961  1       40
siesta:     16.40283  39.38380   1.07336  2       41
siesta:     17.08313  41.46061  44.40102  3       42
siesta:     17.93918  39.46884   3.13506  3       43
siesta:     17.21730  37.02920  44.21772  2       44
siesta:     19.26577  37.14447  43.99473  1       45
siesta:     16.84314  35.37002   0.67085  1       46
siesta:     16.08724  36.44149  41.60801  2       47
siesta:     14.57357  34.39114  41.93115  3       48
siesta:     14.44129  38.30665  40.98629  3       49
siesta:     17.81823  35.92938  39.33278  2       50
siesta:     19.22419  34.53287  39.91670  1       51
siesta:     16.67117  35.09790  37.83044  1       52
siesta:     19.25443  38.16870  38.13091  2       53
siesta:     17.66706  39.12491  36.33189  3       54
siesta:     19.45474  40.07355  39.82221  3       55
siesta:     21.81690  37.71328  36.80810  2       56
siesta:     21.70729  35.85379  35.91426  1       57
siesta:     21.94540  39.10790  35.29632  1       58
siesta:     24.34346  37.82666  38.24051  2       59
siesta:     25.58123  39.97528  37.47328  3       60
siesta:     23.88237  38.20461  40.74062  3       61
siesta:     26.24642  35.64214  37.90225  2       62
siesta:     26.26909  35.18671  35.88591  1       63
siesta:     28.07000  36.45472  38.34634  1       64
siesta:     25.90816  33.17227  39.43293  2       65
siesta:     23.85591  33.38580  40.96550  3       66
siesta:     25.20329  31.39403  37.72651  3       67
siesta:     28.05300  31.97607  41.01463  2       68
siesta:     27.23663  30.31689  41.95572  1       69
siesta:     29.45895  31.25041  39.69938  1       70
siesta:     29.40793  33.53887  43.06310  2       71
siesta:     28.55944  35.96717  42.96672  3       72
siesta:     28.59346  32.66582   0.66329  3       73
siesta:     32.30488  33.62202  43.23695  2       74
siesta:     32.78676  35.19616  44.47283  1       75
siesta:     32.90014  31.88158  44.17426  1       76
siesta:     33.93760  33.91682  40.84645  2       77
siesta:     34.50263  31.56411  39.99607  3       78
siesta:     32.44283  34.95617  39.02853  3       79
siesta:     36.41126  35.43049  40.92393  2       80
siesta:     37.49407  34.81255  39.29876  1       81
siesta:     35.91804  37.41470  40.63102  1       82
siesta:     38.19516  35.27175  43.22183  2       83
siesta:     37.59045  33.13636  44.53330  3       84
siesta:     40.56866  34.87869  42.30910  3       85
siesta:     38.38413  37.46950   0.44031  2       86
siesta:     39.56521  38.94349  44.32921  1       87
siesta:     36.47929  38.20650   0.69920  1       88
siesta:     39.42537  36.90637   3.13884  2       89
siesta:     40.14536  39.17782   4.16118  3       90
siesta:     37.39958  36.20339   4.52968  3       91
siesta:     41.61368  34.98073   3.53757  2       92
siesta:     40.96928  33.13447   2.87994  1       93
siesta:      0.57826  35.59112   2.32814  1       94
siesta:      0.13606  34.51397   6.22665  2       95
siesta:      1.29068  36.70039   6.93152  3       96
siesta:     40.73873  34.30610   7.86693  3       97
siesta:      1.97665  32.30488   6.80869  2       98
siesta:      3.18608  32.97384   8.35070  1       99
siesta:      0.80313  30.81011   7.56836  1      100
siesta:      3.68308  31.07089   4.76589  2      101
siesta:      2.16941  30.24319   2.87238  3      102
siesta:      5.09092  32.87180   3.64150  3      103
siesta:      5.48588  28.87692   5.46509  2      104
siesta:      4.38228  27.58434   6.65562  1      105
siesta:      5.91485  27.89804   3.70953  1      106
siesta:      8.01433  29.34935   6.87105  2      107
siesta:      7.67040  31.15593   8.66629  3      108
siesta:      8.50377  27.21396   8.22409  3      109
siesta:     10.43129  30.08823   5.41218  2      110
siesta:      9.83603  30.89325   3.60371  1      111
siesta:     11.27411  31.62647   6.48554  1      112
siesta:     12.54212  28.12669   4.94542  2      113
siesta:     14.32224  29.26431   3.46009  3      114
siesta:     13.72887  27.71851   7.19041  3      115
siesta:     11.90717  25.54344   3.75489  2      116
siesta:     10.40295  24.69495   4.90951  1      117
siesta:     11.15506  25.91949   1.89918  1      118
siesta:     13.97453  23.50442   3.41474  2      119
siesta:     12.94841  21.69973   1.90107  3      120
siesta:     15.91717  24.47007   1.98610  3      121
siesta:     15.10081  22.12114   5.74099  2      122
siesta:     13.89327  22.53310   7.36616  1      123
siesta:     14.93640  20.10102   5.33659  1      124
siesta:     17.87304  22.56145   6.52523  2      125
siesta:     19.46797  21.71674   4.69975  3      126
siesta:     18.23964  25.12014   6.61782  3      127
siesta:     18.86136  21.53533   9.09526  2      128
siesta:     20.75487  22.35547   9.35415  1      129
siesta:     17.65383  22.31956  10.53145  1      130
siesta:     19.09758  18.67617   9.61304  2      131
siesta:     20.35614  17.59525   7.63261  3      132
siesta:     20.67928  18.37192  11.61237  3      133
siesta:     16.78833  16.96597  10.15161  2      134
siesta:     15.75465  16.78266   8.37149  1      135
siesta:     17.53478  15.07246  10.59948  1      136
siesta:     14.83625  17.65572  12.22842  2      137
siesta:     13.48131  19.61348  11.24199  3      138
siesta:     13.15628  15.70930  12.46275  3      139
siesta:     15.58836  18.41350  14.94585  2      140
siesta:     16.49921  20.25976  14.85325  1      141
siesta:     13.81957  18.67050  15.97386  1      142
siesta:     17.28155  16.68062  16.58424  2      143
siesta:     15.74709  15.76410  18.46452  3      144
siesta:     17.84469  14.63782  15.15183  3      145
siesta:     19.74954  17.69540  17.75776  2      146
siesta:     20.46196  19.17695  16.49354  1      147
siesta:     19.28466  18.62137  19.51710  1      148
siesta:     21.97185  15.86993  18.30956  2      149
siesta:     23.72174  17.17384  19.71363  3      150
siesta:     21.12904  14.03122  19.89504  3      151
siesta:     23.37592  14.51877  16.11181  2      152
siesta:     22.37626  12.72353  15.82268  1      153
siesta:     23.17750  15.64316  14.39027  1      154
siesta:     26.21051  13.83091  16.32913  2      155
siesta:     26.40326  11.97898  18.09036  3      156
siesta:     26.88514  12.70463  14.09736  3      157
siesta:     28.24764  15.81701  17.02077  2      158
siesta:     27.56734  17.68784  16.47653  1      159
siesta:     28.41960  15.77166  19.07490  1      160
siesta:     30.93672  15.56379  15.97008  2      161
siesta:     30.80255  15.84347  13.42273  3      162
siesta:     32.21795  17.64249  16.77133  3      163
siesta:     32.54677  13.24321  16.60503  2      164
siesta:     33.02109  13.35281  18.59869  1      165
siesta:     31.36758  11.58025  16.31590  1      166
siesta:     35.05632  12.77266  15.19151  2      167
siesta:     35.55899  14.80790  13.70052  3      168
siesta:     36.93660  12.76699  16.96219  3      169
siesta:     35.44750  10.34625  13.59847  2      170
siesta:     37.47706   9.97965  13.57013  1      171
siesta:     34.52153   8.82502  14.62082  1      172
siesta:     34.52153  10.24421  10.83380  2      173
siesta:     35.42671  12.31346   9.57714  3      174
siesta:     35.78765   8.32614   9.69997  3      175
siesta:     31.69828   9.95508  10.14783  2      176
siesta:     30.76664  11.66717  10.84136  1      177
siesta:     31.59245   9.95130   8.10315  1      178
siesta:     30.15437   7.65528  11.10970  2      179
siesta:     31.77954   5.74666  11.65584  3      180
siesta:     29.18116   8.35259  13.38305  3      181
siesta:     27.89237   6.67074   9.53556  2      182
siesta:     26.19539   7.54946  10.34814  1      183
siesta:     28.11914   7.34159   7.59292  1      184
siesta:     27.34624   3.80213   9.38816  2      185
siesta:     25.78154   3.39773   7.38505  3      186
siesta:     29.47407   2.60404   8.66440  3      187
siesta:     26.23508   2.43397  11.70875  2      188
siesta:     26.91727   3.40529  13.40383  1      189
siesta:     24.18472   2.70420  11.59158  1      190
siesta:     26.63759  45.82399  12.14527  2      191
siesta:     25.72674  44.60700  10.08169  3      192
siesta:     29.14526  45.32510  12.10181  3      193
siesta:     25.47541  44.55220  14.49232  2      194
siesta:     25.25998  46.00162  15.92095  1      195
siesta:     23.57245  43.93804  13.98965  1      196
siesta:     26.81144  42.28264  15.78111  2      197
siesta:     28.92983  43.21616  16.93384  3      198
siesta:     25.33935  41.56454  17.76154  3      199
siesta:     27.52765  39.87135  14.33358  2      200
siesta:     28.30433  40.47795  12.52511  1      201
siesta:     29.04888  38.96050  15.37671  1      202
siesta:     25.50186  37.83800  13.76099  2      203
siesta:     23.20774  38.99262  14.00099  3      204
siesta:     25.73052  37.29376  11.26655  3      205
siesta:     25.39037  35.33789  15.16884  2      206
siesta:     23.92583  34.18516  14.27311  1      207
siesta:     27.16482  34.38547  14.86459  1      208
siesta:     24.89904  35.30955  18.04311  2      209
siesta:     25.16171  32.86991  18.83869  3      210
siesta:     26.88892  36.55677  19.12782  3      211
siesta:     22.44618  36.36023  19.27899  2      212
siesta:     22.82979  36.35079  21.31801  1      213
siesta:     22.27043  38.34067  18.71208  1      214
siesta:     19.85347  35.03554  18.90294  2      215
siesta:     20.15961  33.29132  17.05479  3      216
siesta:     19.36781  33.69005  21.04589  3      217
siesta:     17.40061  36.47740  18.24909  2      218
siesta:     16.98675  36.03898  16.28756  1      219
siesta:     15.92662  35.64403  19.38104  1      220
siesta:     17.15305  39.36112  18.48153  2      221
siesta:     18.71963  40.44016  16.76755  3      222
siesta:     14.81924  40.05087  17.68973  3      223
siesta:     17.55367  40.69527  21.04211  2      224
siesta:     15.69418  40.84456  21.92650  1      225
siesta:     18.70452  39.44805  22.21563  1      226
siesta:     18.77066  43.33333  21.14604  2      227
siesta:     18.77822  44.05709  23.61025  3      228
siesta:     21.24620  43.09711  20.52810  3      229
siesta:     17.63304  45.57265  19.68151  2      230
siesta:     16.35748  44.83377  18.27177  1      231
siesta:     16.51243   0.38928  21.02888  1      232
siesta:     19.34891   1.26423  18.37003  2      233
siesta:     20.20685   0.22110  16.16094  3      234
siesta:     17.85792   3.22198  17.60659  3      235
siesta:     21.65249   2.34515  19.79678  2      236
siesta:     21.10258   2.51334  21.78288  1      237
siesta:     23.12648   0.93353  19.72119  1      238
siesta:     22.84302   4.88872  18.98042  2      239
siesta:     25.27132   4.84337  19.87048  3      240
siesta:     23.13215   4.90195  16.40283  3      241
siesta:     21.67895   7.43796  19.83835  2      242
siesta:     22.73530   8.92896  18.87459  1      243
siesta:     19.75332   7.51544  19.13159  1      244
siesta:     21.57690   8.18252  22.66727  2      245
siesta:     22.54066   6.25878  24.08835  3      246
siesta:     23.26632  10.07035  23.02443  3      247
siesta:     19.08813   9.11037  23.91638  2      248
siesta:     19.62103  10.12327  25.63792  1      249
siesta:     18.17161  10.45019  22.61814  1      250
siesta:     17.03589   7.18096  24.70251  2      251
siesta:     14.78333   8.39417  24.40015  3      252
siesta:     17.01888   5.29879  22.96774  3      253
siesta:     17.10581   5.95453  27.35191  2      254
siesta:     18.53633   4.45031  27.29899  1      255
siesta:     17.78233   7.35293  28.70117  1      256
siesta:     14.70963   4.78290  28.52921  2      257
siesta:     15.39749   3.77945  30.79877  3      258
siesta:     13.10526   6.69719  29.11313  3      259
siesta:     13.17140   2.81569  27.05144  2      260
siesta:     11.85804   3.88150  25.88170  1      261
siesta:     14.47909   1.84437  25.79288  1      262
siesta:     11.62560   0.69731  28.38559  2      263
siesta:     10.97175  45.24762  26.56011  3      264
siesta:     13.19218  45.55187  29.89359  3      265
siesta:      9.25588   1.27746  29.98241  2      266
siesta:      8.85526  45.78052  31.04065  1      267
siesta:      9.76611   2.76089  31.33167  1      268
siesta:      6.73877   2.11082  28.71818  2      269
siesta:      7.16773   4.21976  27.30088  3      270
siesta:      6.07736   0.29480  27.03443  3      271
siesta:      4.32558   2.58326  30.29421  2      272
siesta:      2.85349   2.90640  28.89959  1      273
siesta:      3.89284   0.79746  31.25608  1      274
siesta:      4.17441   4.78668  32.22362  2      275
siesta:      6.18319   6.31925  31.87024  3      276
siesta:      2.20153   6.30413  31.54521  3      277
siesta:      3.92496   4.39173  35.12057  2      278
siesta:      5.04557   5.89784  35.99552  1      279
siesta:      1.95965   4.74510  35.61568  1      280
siesta:      4.79613   1.93130  36.45850  2      281
siesta:      6.54601   0.76345  34.98451  3      282
siesta:      6.12460   2.64562  38.52397  3      283
siesta:      2.88183  46.19437  37.41092  2      284
siesta:      3.98543  44.58244  38.08933  1      285
siesta:      1.92941   0.78046  39.03231  1      286
siesta:      0.80124  45.10778  35.65537  2      287
siesta:     42.50563   0.81636  34.21539  3      288
siesta:      1.87272  43.48262  33.93760  3      289
siesta:     41.03542  43.80576  36.80432  2      290
siesta:     40.12079  45.17770  38.05910  1      291
siesta:     39.74096  43.43915  35.22829  1      292
siesta:     41.21494  41.34722  38.38791  2      293
siesta:     41.29053  42.01052  40.88613  3      294
siesta:     38.91893  40.19071  38.18193  3      295
siesta:      0.73699  39.39514  37.95138  2      296
siesta:      2.49066  40.38724  37.43171  1      297
siesta:      1.09037  38.45972  39.75796  1      298
siesta:      0.41007  37.25597  36.01630  2      299
siesta:      2.66263  36.05410  35.89536  3      300
siesta:     41.43037  35.49852  37.05187  3      301
siesta:     42.10878  37.77753  33.29510  2      302
siesta:     40.57055  36.45283  32.96062  1      303
siesta:     41.29053  39.68615  33.26108  1      304
siesta:      1.34549  37.61501  31.00097  2      305
siesta:      3.64906  38.49374  31.73607  3      306
siesta:      1.75367  35.10168  30.57767  3      307
siesta:      0.73699  38.88869  28.41960  2      308
siesta:      1.49288  40.79164  28.50464  1      309
siesta:      1.82170  37.85312  27.02120  1      310
siesta:     40.62535  39.08900  27.33868  2      311
siesta:     40.49496  37.33344  25.46596  3      312
siesta:     38.88491  38.36524  29.08101  3      313
siesta:     39.73718  41.58722  26.15193  2      314
siesta:     41.01274  41.94249  24.57401  1      315
siesta:     37.85690  41.22061  25.37714  1      316
siesta:     39.58600  44.04008  27.73552  2      317
siesta:     39.30821  43.37868  30.21106  3      318
siesta:     41.89713  45.16825  27.65993  3      319
siesta:     37.53564  46.03564  27.13648  2      320
siesta:     36.76842  45.61990  25.24297  1      321
siesta:     36.03331  45.73895  28.50275  1      322
siesta:     38.15737   2.63428  27.21018  2      323
siesta:     39.74852   3.16529  25.27510  3      324
siesta:     36.04654   3.90984  26.55255  3      325
siesta:     39.23829   3.91173  29.58934  2      326
siesta:     40.90881   2.86861  30.15059  1      327
siesta:     39.79198   5.81091  29.03376  1      328
siesta:     37.64147   4.18386  32.03276  2      329
siesta:     37.28431   1.82926  32.97573  3      330
siesta:     39.13246   5.38005  33.76753  3      331
siesta:     35.05443   5.55769  31.96662  2      332
siesta:     35.23774   7.21687  30.77231  1      333
siesta:     33.77320   4.24811  31.02932  1      334
siesta:     33.67493   6.34381  34.41382  2      335
siesta:     31.16160   6.15295  33.92060  3      336
siesta:     34.17004   4.47298  36.12024  3      337
siesta:     34.15870   8.93274  35.67804  2      338
siesta:     36.19016   9.19163  35.73096  1      339
siesta:     33.40281  10.34814  34.40626  1      340
siesta:     33.08723   9.47698  38.32177  2      341
siesta:     30.96129   8.05024  38.62224  3      342
siesta:     34.81444   8.56424  39.99418  3      343
siesta:     32.36724  12.19630  39.12680  2      344
siesta:     31.33545  13.01077  37.54698  1      345
siesta:     31.01231  12.05835  40.68015  1      346
siesta:     34.40815  14.14650  39.86757  2      347
siesta:     35.80088  14.72097  37.76430  3      348
siesta:     33.20628  16.35370  40.39102  3      349
siesta:     36.30165  13.69863  42.04264  2      350
siesta:     37.43171  12.04134  41.52864  1      351
siesta:     37.53942  15.34458  42.03697  1      352
siesta:     35.41348  13.30935   0.10582  2      353
siesta:     32.92471  14.01610   0.24755  3      354
siesta:     35.37569  10.76388   0.62172  3      355
siesta:     36.80243  14.63593   2.31869  2      356
siesta:     36.39614  16.64660   2.14862  1      357
siesta:     35.93127  13.95941   4.05535  1      358
siesta:     39.69938  14.48665   2.63239  2      359
siesta:     40.78220  13.84603   0.39684  3      360
siesta:     40.46850  16.91306   2.97632  3      361
siesta:     40.92581  12.85392   4.71487  2      362
siesta:      0.12283  13.75532   5.21754  1      363
siesta:     39.71072  12.91628   6.38917  1      364
siesta:     41.57021  10.07791   4.17630  2      365
siesta:     39.90158   9.18218   2.43397  3      366
siesta:      1.24155   9.97965   2.92719  3      367
siesta:     41.69682   8.12961   6.33247  2      368
siesta:     39.74663   7.66851   6.80869  1      369
siesta:     42.55287   6.44586   5.51233  1      370
siesta:      0.48755   8.67196   8.85148  2      371
siesta:      2.34893  10.38594   8.44519  3      372
siesta:     41.40392   9.89461  10.37649  3      373
siesta:      1.64973   6.48932  10.43885  2      374
siesta:      3.54702   7.09403  10.96609  1      375
siesta:      0.48755   6.40428  12.14338  1      376
siesta:      1.81414   3.77001   9.37494  2      377
siesta:     42.05209   3.07459   8.58314  3      378
siesta:      3.23332   3.83804   7.23198  3      379
siesta:      2.80058   1.57792  11.02845  2      380
siesta:      1.86516   1.68564  12.85203  1      381
siesta:      2.17130  46.07154  10.11193  1      382
siesta:      5.63139   1.23021  11.51978  2      383
siesta:      6.63294   3.46576  12.34370  3      384
siesta:      5.74099  45.88257  13.53989  3      385
siesta:      7.38127   0.17574   9.42974  2      386
siesta:      6.35137  44.93771   8.45275  1      387
siesta:      7.69686   1.68186   8.07858  1      388
siesta:     10.01744  45.30431  10.06658  2      389
siesta:      9.79067  43.76796  12.11315  3      390
siesta:     10.59948  43.74151   8.08803  3      391
siesta:     12.26244   0.87494  10.45775  2      392
siesta:     13.09203   1.26801   8.62660  1      393
siesta:     11.47253   2.64184  11.18529  1      394
siesta:     14.45452   0.10016  12.24165  2      395
siesta:     16.16283   2.04468  12.17740  3      396
siesta:     13.53989   0.09260  14.63216  3      397
siesta:     15.89260  43.84355  11.86748  2      398
siesta:     17.15872  43.64324  13.46619  1      399
siesta:     14.47531  42.33744  11.99788  1      400
siesta:     17.39683  43.38057   9.43163  2      401
siesta:     15.79623  43.50151   7.40584  3      402
siesta:     19.03711  45.33833   9.11226  3      403
siesta:     18.99931  40.96928   9.08581  2      404
siesta:     19.51521  40.91448   7.10726  1      405
siesta:     20.73975  41.27730  10.16673  1      406
siesta:     17.99776  38.29909   9.73776  2      407
siesta:     17.01321  38.34445  12.10559  3      408
siesta:     15.99843  37.76241   8.21842  3      409
siesta:     19.86103  36.06922   9.63572  2      410
siesta:     21.31612  36.56999   8.26189  1      411
siesta:     20.70952  36.02008  11.49710  1      412
siesta:     18.95585  33.35557   9.10470  2      413
siesta:     20.48842  31.78332  10.42751  3      414
siesta:     16.69574  33.00408  10.27822  3      415
siesta:     18.64782  32.33890   6.38161  2      416
siesta:     18.23775  30.31878   6.54034  1      417
siesta:     16.99242  33.26108   5.57658  1      418
siesta:     20.77566  32.61669   4.41251  2      419
siesta:     19.92528  31.64915   2.18074  3      420
siesta:     21.04022  35.12057   3.89662  3      421
siesta:     23.41183  31.53387   4.95297  2      422
siesta:     24.64204  32.07811   3.39773  1      423
siesta:     24.16394  32.48441   6.62160  1      424
siesta:     23.74442  28.68038   5.40840  2      425
siesta:     26.25398  28.29299   5.78634  3      426
siesta:     22.73719  28.12481   7.69875  3      427
siesta:     22.82790  26.69050   3.49410  2      428
siesta:     23.11703  24.83668   4.36338  1      429
siesta:     20.79266  26.98530   3.21632  1      430
siesta:     24.02221  26.52799   0.85038  2      431
siesta:     23.74631  28.83156  44.43126  3      432
siesta:     26.55255  26.20484   1.14517  3      433
siesta:     23.10758  24.51354  43.66214  2      434
siesta:     24.75920  23.74631  42.70405  1      435
siesta:     22.24775  22.99798   0.05858  1      436
siesta:     21.16305  25.28077  41.64580  2      437
siesta:     20.13126  23.11325  40.74062  3      438
siesta:     19.22230  26.40893  42.89113  3      439
siesta:     21.87926  26.97963  39.36679  2      440
siesta:     21.38604  28.92038  39.86190  1      441
siesta:     23.92961  26.92483  39.18916  1      442
siesta:     20.78322  26.41460  36.70417  2      443
siesta:     21.79422  28.06622  35.00152  3      444
siesta:     21.75076  24.18095  35.92749  3      445
siesta:     17.88815  26.30689  36.28843  2      446
siesta:     17.55367  25.80800  34.31933  1      447
siesta:     17.16439  24.74408  37.43171  1      448
siesta:     16.27622  28.66149  36.84778  2      449
siesta:     17.75209  30.77420  36.60401  3      450
siesta:     14.58680  28.83723  34.91648  3      451
siesta:     14.76066  28.91660  39.31766  2      452
siesta:     16.11181  28.88070  40.87479  1      453
siesta:     13.91406  30.80822  39.23262  1      454
siesta:     12.61960  27.04955  39.95261  2      455
siesta:     12.62149  25.17494  38.20650  3      456
siesta:     13.24510  25.82123  42.15225  3      457
siesta:      9.88138  28.03221  40.19827  2      458
siesta:      9.46753  29.04699  38.46728  1      459
siesta:      8.66818  26.38437  40.24929  1      460
siesta:      9.09903  29.71029  42.44893  2      461
siesta:      7.70253  28.27220  44.03631  3      462
siesta:     11.25899  30.22807  43.75663  3      463
siesta:      7.71575  32.27276  42.12201  2      464
siesta:      7.37371  33.04943  43.99851  1      465
siesta:      9.05935  33.54454  41.18282  1      466
siesta:      5.20242  32.48252  40.70283  2      467
siesta:      4.40495  34.88625  41.02219  3      468
siesta:      5.71453  32.40882  38.19516  3      469
siesta:      2.94608  30.71184  41.27730  2      470
siesta:      3.42041  29.70840  43.02530  1      471
siesta:      1.34738  31.93827  41.67793  1      472
siesta:      1.99366  28.71251  39.34222  2      473
siesta:      3.87772  26.97396  39.01908  3      474
siesta:      0.05858  27.42939  40.48362  3      475
siesta:      1.10549  29.50431  36.67771  2      476
siesta:      1.29635  31.53387  36.53220  1      477
siesta:      2.41885  28.69739  35.34545  1      478
siesta:     40.98818  28.85046  35.76497  2      479
siesta:     39.30632  29.74808  37.50352  3      480
siesta:     40.50630  30.28854  33.68060  3      481
siesta:     40.23984  26.09713  35.15648  2      482
siesta:     40.69716  24.99542  36.83078  1      483
siesta:     38.20461  26.10091  34.90703  1      484
siesta:     41.42092  24.66472  32.89826  2      485
siesta:      0.20409  26.31067  31.49608  3      486
siesta:      0.57259  23.05089  33.89981  3      487
siesta:     39.79387  23.10002  31.05766  2      488
siesta:     41.09589  21.92272  29.96351  1      489
siesta:     38.65247  21.84524  32.21228  1      490
siesta:     37.95516  24.35291  29.15660  2      491
siesta:     37.91359  22.82601  27.06467  3      492
siesta:     35.57600  24.07512  30.09768  3      493
siesta:     38.18571  27.13081  28.26276  2      494
siesta:     36.37157  27.62025  27.39537  1      495
siesta:     38.38413  28.28354  29.96729  1      496
siesta:     40.27764  27.90749  26.39004  2      497
siesta:     41.86501  25.88926  26.05555  3      498
siesta:     39.12491  28.26653  24.11480  3      499
siesta:     41.97461  30.23752  26.87192  2      500
siesta:     40.81054  31.90993  26.54688  1      501
siesta:     42.49996  30.23941  28.84479  1      502
siesta:      1.85760  30.57011  25.32801  2      503
siesta:      2.99333  32.66960  26.25964  3      504
siesta:      3.46576  28.65960  25.95729  3      505
siesta:      1.74422  30.81578  22.41405  2      506
siesta:      0.80313  29.12825  21.69406  1      507
siesta:      0.54046  32.44094  21.99642  1      508
siesta:      4.19519  31.10490  20.83046  2      509
siesta:      5.04746  28.75030  20.27299  3      510
siesta:      3.50733  32.06111  18.54578  3      511
siesta:      6.48176  32.63558  21.77721  2      512
siesta:      6.84648  31.98741  23.68773  1      513
siesta:      8.07858  32.09512  20.60369  1      514
siesta:      6.40050  35.53442  21.85469  2      515
siesta:      6.98254  36.44338  19.50954  3      516
siesta:      3.95331  36.20528  22.27232  3      517
siesta:      7.98410  36.92526  23.86914  2      518
siesta:      6.81813  37.01975  25.60013  1      519
siesta:      9.62249  35.73851  24.30378  1      520
siesta:      8.99888  39.63324  23.41183  2      521
siesta:      9.98910  40.46472  25.63415  3      522
siesta:     11.06246  39.43482  21.86792  3      523
siesta:      7.31891  41.79698  22.40649  2      524
siesta:      5.50288  40.98818  21.85658  1      525
siesta:      6.94853  43.08766  23.97308  1      526
siesta:      8.17874  43.41836  20.14638  2      527
siesta:      8.47543  41.85367  18.13004  3      528
siesta:      6.19263  44.88668  19.47175  3      529
siesta:     10.53901  45.11723  20.27866  2      530
siesta:     11.64450  44.47283  21.90382  1      531
siesta:     11.62749  44.72984  18.56090  1      532
siesta:     10.23665   1.77067  20.56401  2      533
siesta:      8.72109   2.21665  22.58035  3      534
siesta:     12.50432   2.68152  21.34447  3      535
siesta:      9.23698   3.41285  18.35681  2      536
siesta:      9.07636   2.18263  16.71463  1      537
siesta:      7.37560   4.05157  18.89349  1      538
siesta:     10.68830   5.80524  17.45541  2      539
siesta:     12.61393   5.04179  15.91906  3      540
siesta:      9.07258   7.13939  15.94741  3      541
siesta:     11.78623   7.64395  19.41883  2      542
siesta:     10.65995   7.51544  21.13848  1      543
siesta:     13.66650   6.97498  19.84969  1      544
siesta:     12.05079  10.48231  18.75743  2      545
siesta:     13.43029  11.56702  20.66416  3      546
siesta:     13.58147  10.71664  16.67306  3      547
siesta:      9.71509  12.20197  18.29067  2      548
siesta:     10.36515  14.14083  18.39460  1      549
siesta:      9.15006  11.86371  16.33480  1      550
siesta:      7.29246  12.06213  19.90260  2      551
siesta:      5.58036  13.57391  18.69696  3      552
siesta:      6.31169   9.69430  19.66450  3      553
siesta:      7.27167  12.85014  22.71452  2      554
siesta:      9.19541  13.48131  23.18128  1      555
siesta:      5.98854  14.46586  22.87325  1      556
siesta:      6.51200  10.92640  24.79511  2      557
siesta:      4.58826   9.46942  23.94662  3      558
siesta:      8.46976   9.28045  25.05211  3      559
siesta:      5.69753  11.84103  27.43694  2      560
siesta:      4.11016  13.13549  27.20640  1      561
siesta:      4.96242  10.13649  28.43094  1      562
siesta:      7.61182  13.14305  29.18872  2      563
siesta:      8.34503  15.32380  28.02276  3      564
siesta:      6.30035  13.94052  31.24474  3      565
siesta:      9.96453  11.67284  30.09012  2      566
siesta:      9.54123   9.66028  30.05611  1      567
siesta:     11.50466  12.00543  28.74275  1      568
siesta:     11.09270  12.23031  32.71306  2      569
siesta:     13.59847  11.69363  32.53732  3      570
siesta:     11.04734  14.76822  33.11746  3      571
siesta:     10.12894  10.84325  35.11113  2      572
siesta:     10.34436  12.15850  36.68149  1      573
siesta:      8.11071  10.51633  34.87869  1      574
siesta:     11.28923   8.27889  35.90481  2      575
siesta:      9.58847   7.07703  37.42604  3      576
siesta:     11.37616   6.81813  33.81855  3      577
siesta:     13.88571   8.13716  37.21250  2      578
siesta:     15.12348   9.47320  36.26953  1      579
siesta:     13.59281   8.80235  39.13057  1      580
siesta:     15.37104   5.63139  37.41659  2      581
siesta:     16.96597   5.55580  35.41537  3      582
siesta:     16.93384   5.90729  39.43482  3      583
siesta:     13.98209   3.05380  37.61312  2      584
siesta:     12.59314   3.20120  39.13246  1      585
siesta:     12.90872   2.80435  35.86324  1      586
siesta:     15.49387   0.55747  37.96461  2      587
siesta:     16.10992  45.91091  35.63269  3      588
siesta:     17.76910   1.04691  39.06632  3      589
siesta:     14.35626  44.55787  39.43293  2      590
siesta:     15.72820  43.03286  39.45750  1      591
siesta:     14.08980  45.20794  41.36801  1      592
siesta:     11.78812  43.45049  38.62791  2      593
siesta:     10.96986  41.97839  40.57811  3      594
siesta:     10.12894  45.41770  38.52775  3      595
siesta:     11.53111  41.83666  36.20717  2      596
siesta:     11.73898  43.12546  34.61602  1      597
siesta:     13.14305  40.56488  36.14670  1      598
siesta:      9.14061  40.23795  35.72907  2      599
siesta:      7.18096  41.41525  36.91581  3      600
siesta:      8.59448  40.40425  33.21195  3      601
siesta:      9.04612  37.40903  36.50007  2      602
siesta:     10.10437  37.25030  38.26130  1      603
siesta:      7.08081  36.96684  36.94416  1      604
siesta:     10.05146  35.27742  34.76720  2      605
siesta:     12.39661  35.98985  34.03398  3      606
siesta:     10.43129  33.22707  36.26953  3      607
siesta:      8.46976  34.44027  32.45795  2      608
siesta:      6.67074  33.75619  33.21951  1      609
siesta:      8.07480  36.13158  31.33923  1      610
siesta:      9.45430  32.43338  30.55688  2      611
siesta:      8.24677  32.90014  28.32890  3      612
siesta:     11.92796  32.92093  30.03910  3      613
siesta:      9.28045  29.57045  31.08412  2      614
siesta:      9.60737  28.59535  29.29077  1      615
siesta:     10.80924  29.08857  32.38803  1      616
siesta:      6.81247  28.45929  32.16315  2      617
siesta:      6.86349  28.88637  34.69916  3      618
siesta:      4.82069  29.83501  31.31088  3      619
siesta:      6.10193  25.67005  31.80221  2      620
siesta:      4.54290  25.28455  33.08345  1      621
siesta:      5.39895  25.45462  29.87091  1      622
siesta:      8.00866  23.53466  32.30866  2      623
siesta:      9.48643  23.22663  30.20917  3      624
siesta:      9.71320  24.36992  34.02075  3      625
siesta:      7.05246  20.90983  33.14959  2      626
siesta:      5.22509  20.59991  32.26331  1      627
siesta:      8.38283  19.51899  32.35968  1      628
siesta:      6.73310  20.30512  35.99363  2      629
siesta:      5.72965  22.39137  37.12935  3      630
siesta:      4.91518  18.51176  36.19205  3      631
siesta:      9.08581  19.40750  37.47895  2      632
siesta:      9.36927  17.42895  36.95550  1      633
siesta:     10.68074  20.49031  36.80432  1      634
siesta:      9.24076  19.50576  40.39480  2      635
siesta:      8.76266  21.90571  41.12235  3      636
siesta:      7.31702  18.11870  41.32833  3      637
siesta:     11.69741  18.68751  41.79320  2      638
siesta:     13.02589  20.30323  41.77052  1      639
siesta:     11.12860  18.38137  43.75474  1      640
siesta:     13.15817  16.31590  40.95416  2      641
siesta:     11.38182  14.60570  40.25874  3      642
siesta:     14.41106  16.85825  38.77909  3      643
siesta:     14.97042  14.96286  42.78909  2      644
siesta:     13.82902  14.34492  44.40858  1      645
siesta:     15.68095  13.26966  41.84800  1      646
siesta:     17.28155  16.40472  43.83410  2      647
siesta:     16.40283  18.26421   0.70109  3      648
siesta:     18.51365  14.81546   0.77857  3      649
siesta:     19.29600  17.58013  42.04453  2      650
siesta:     18.27555  18.74609  40.68960  1      651
siesta:     20.46385  18.86325  43.16892  1      652
siesta:     21.13093  15.86048  40.56299  2      653
siesta:     19.82135  13.74398  39.86190  3      654
siesta:     21.70729  17.01888  38.33311  3      655
siesta:     23.61403  14.93640  41.80265  2      656
siesta:     23.21907  14.43184  43.74529  1      657
siesta:     24.12614  13.19785  40.84078  1      658
siesta:     25.97808  16.63905  41.77241  2      659
siesta:     27.37458  15.81512  39.78442  3      660
siesta:     25.29588  19.01632  41.14502  3      661
siesta:     27.78087  16.75810  44.07410  2      662
siesta:     28.35346  14.81546  44.49362  1      663
siesta:     29.44572  17.82390  43.46561  1      664
siesta:     26.92294  17.94485   1.89918  2      665
siesta:     25.84202  20.21441   1.38706  3      666
siesta:     25.01054  16.52188   2.85349  3      667
siesta:     28.83912  18.42484   4.03646  2      668
siesta:     30.69672  18.43618   3.16718  1      669
siesta:     28.43661  20.32212   4.75833  1      670
siesta:     28.95628  16.60503   6.31358  2      671
siesta:     28.65771  14.20319   5.41407  3      672
siesta:     31.38458  16.64849   7.11860  3      673
siesta:     27.18183  16.90928   8.61526  2      674
siesta:     25.29777  16.42173   7.95953  1      675
siesta:     27.70529  15.46364  10.00043  1      676
siesta:     26.92105  19.45096  10.07413  2      677
siesta:     25.42816  21.00620   8.71353  3      678
siesta:     25.49997  19.01443  12.15283  3      679
siesta:     29.27754  20.93061  11.01333  2      680
siesta:     29.43628  20.58857  13.03723  1      681
siesta:     30.96695  20.14071  10.10248  1      682
siesta:     29.41171  23.82379  10.66562  2      683
siesta:     31.75119  24.53243  11.40828  3      684
siesta:     29.42305  24.32267   8.12583  3      685
siesta:     27.46529  25.54911  11.96953  2      686
siesta:     26.44862  26.56956  10.52389  1      687
siesta:     26.09146  24.32456  12.93518  1      688
siesta:     28.34212  27.55600  13.91973  2      689
siesta:     26.19161  28.68038  14.80223  3      690
siesta:     29.29833  26.31634  15.96441  3      691
siesta:     30.22240  29.70084  13.25832  2      692
siesta:     30.20350  30.94617  14.89672  1      693
siesta:     32.11969  28.87881  13.13360  1      694
siesta:     29.82745  31.37703  10.90750  2      695
siesta:     27.31978  31.62080  10.52389  3      696
siesta:     30.58145  33.76564  11.57647  3      697
siesta:     31.06900  30.76475   8.34503  2      698
siesta:     30.49452  28.87314   7.82725  1      699
siesta:     30.19217  32.01953   6.98254  1      700
siesta:     33.97540  30.98585   8.01433  2      701
siesta:     34.73129  33.24219   9.02156  3      702
siesta:     35.09979  29.25108   9.53556  3      703
siesta:     35.23774  30.80255   5.37816  2      704
siesta:     34.53476  32.35401   4.22354  1      705
siesta:     37.26352  31.06522   5.67674  1      706
siesta:     34.93916  28.36291   3.81158  2      707
siesta:     32.51086  28.19095   3.00089  3      708
siesta:     36.27331  28.64448   1.61005  3      709
siesta:     35.59679  25.71162   4.88872  2      710
siesta:     34.39681  25.39793   6.54223  1      711
siesta:     35.06388  24.31701   3.46198  1      712
siesta:     38.34256  25.10691   5.66729  2      713
siesta:     39.88835  25.54911   3.68497  3      714
siesta:     39.16648  26.80956   7.40017  3      715
siesta:     38.98507  22.44051   6.66129  2      716
siesta:     39.25719  21.23297   5.00778  1      717
siesta:     40.82566  22.63326   7.61749  1      718
siesta:     37.17660  21.05534   8.48676  2      719
siesta:     36.31299  22.76743  10.17240  3      720
siesta:     35.10924  20.33157   7.12994  3      721
siesta:     38.04209  18.76499  10.07791  2      722
siesta:     37.37880  19.10325  12.00543  1      723
siesta:     37.04432  17.11337   9.36171  1      724
siesta:     40.85401  18.07902  10.30657  2      725
siesta:     41.82721  17.94863   7.93874  3      726
siesta:     42.06343  20.04622  11.38938  3      727
siesta:     41.71950  15.62426  11.65017  2      728
siesta:     40.07922  14.42240  11.94874  1      729
siesta:      0.39495  14.65672  10.32169  1      730
siesta:      0.48755  15.75843  14.21453  2      731
siesta:     41.28675  16.38393  15.93607  3      732
siesta:      1.11305  13.34525  14.77955  3      733
siesta:      2.84404  17.39494  14.76822  2      734
siesta:      2.23366  19.31679  14.91750  1      735
siesta:      3.50166  16.80534  16.60314  1      736
siesta:      5.16840  17.35714  13.03534  2      737
siesta:      6.26255  15.03278  13.10526  3      738
siesta:      4.38984  17.68028  10.59570  3      739
siesta:      7.26978  19.31301  13.61737  2      740
siesta:      7.06569  19.88938  15.57702  1      741
siesta:      9.06691  18.27933  13.46808  1      742
siesta:      7.47387  21.72619  12.02055  2      743
siesta:      9.48076  23.06790  12.92762  3      744
siesta:      8.22976  21.08179   9.65084  3      745
siesta:      5.19486  23.55356  11.85426  2      746
siesta:      5.40462  24.64960  10.13838  1      747
siesta:      3.51867  22.40460  11.58214  1      748
siesta:      4.65629  25.43572  13.98965  2      749
siesta:      5.61060  24.43795  16.14583  3      750
siesta:      6.10949  27.50308  13.56635  3      751
siesta:      1.91807  26.27098  14.54334  2      752
siesta:      0.75967  24.62314  14.90995  1      753
siesta:      2.02390  27.34435  16.29134  1      754
siesta:      0.43842  27.93205  12.66117  2      755
siesta:      1.55902  30.25075  12.58180  3      756
siesta:      0.75211  26.89648  10.30468  3      757
siesta:     40.12835  28.35913  12.96920  2      758
siesta:     39.52553  29.52887  11.35348  1      759
siesta:     39.20994  26.53177  12.81991  1      760
siesta:     39.06632  29.69139  15.33324  2      761
siesta:     36.66826  28.84857  15.65072  3      762
siesta:     40.35512  28.74464  17.34202  3      763
siesta:     39.07766  32.58834  15.48631  2      764
siesta:     40.81432  33.30644  14.64538  1      765
siesta:     37.58289  33.29510  14.23531  1      766
siesta:     38.78664  33.98485  18.04122  2      767
siesta:     38.61846  32.31433  19.97819  3      768
siesta:     40.99007  35.20939  18.47964  3      769
siesta:     36.66448  35.93127  18.40405  2      770
siesta:     37.01219  36.78353  20.23520  1      771
siesta:     36.94416  37.37880  16.96786  1      772
siesta:     33.86202  35.12435  18.36437  2      773
siesta:     32.44283  37.24085  18.03933  3      774
siesta:     33.48407  33.85257  16.16283  3      775
siesta:     32.71117  33.52375  20.52621  2      776
siesta:     30.79310  33.02676  19.97630  1      777
siesta:     33.75997  31.72662  20.55267  1      778
siesta:     32.60913  34.43649  23.30978  2      779
siesta:     31.84568  32.35590  24.64393  3      780
siesta:     35.02420  34.86168  24.12047  3      781
siesta:     30.93294  36.67393  24.14504  2      782
siesta:     29.12069  36.49441  23.18695  1      783
siesta:     30.57578  36.40181  26.14059  1      784
siesta:     31.79088  39.44049  23.81056  2      785
siesta:     32.62424  40.30598  26.08012  3      786
siesta:     33.92438  39.50096  22.36114  3      787
siesta:     29.98052  41.42659  22.67483  2      788
siesta:     31.07467  43.17270  22.54633  1      789
siesta:     29.56478  40.80487  20.73786  1      790
siesta:     27.45962  42.02564  24.01087  2      791
siesta:     25.67950  40.44960  23.02821  3      792
siesta:     27.64670  41.25085  26.43350  3      793
siesta:     26.34846  44.72417  23.96552  2      794
siesta:     26.82656  45.53675  22.14382  1      795
siesta:     24.29055  44.49551  24.08268  1      796
siesta:     27.13270   0.43086  26.00453  2      797
siesta:     29.70462   0.38550  26.16516  3      798
siesta:     26.59035   2.74388  25.03888  3      799
siesta:     26.06878   0.30614  28.70684  2      800
siesta:     26.16894  44.58433  29.30966  1      801
siesta:     27.33679   1.38895  29.92949  1      802
siesta:     23.34191   1.22832  29.28132  2      803
siesta:     23.38726   3.77001  29.61202  3      804
siesta:     21.94918   0.88817  27.14404  3      805
siesta:     21.72430   0.03968  31.40915  2      806
siesta:     20.05945   1.25667  31.61135  1      807
siesta:     21.03266  44.46716  30.70050  1      808
siesta:     22.78633  45.80698  34.09256  2      809
siesta:     21.54289  43.75096  34.99963  3      810
siesta:     25.21652  45.00763  33.84312  3      811
siesta:     22.68239   1.63839  36.15236  2      812
siesta:     21.02321   2.80246  35.78387  1      813
siesta:     22.38570   0.66140  37.95516  1      814
siesta:     24.94062   3.44119  36.54732  2      815
siesta:     26.52988   2.28657  38.23295  3      816
siesta:     26.25587   3.56402  34.33445  3      817
siesta:     24.53243   6.13783  37.56021  2      818
siesta:     23.28144   5.99799  39.21183  1      819
siesta:     26.37303   6.78223  38.24429  1      820
siesta:     23.44206   8.26756  35.85568  2      821
siesta:     22.65971   7.30946  33.59745  3      822
siesta:     21.18384   8.92329  36.90637  3      823
siesta:     24.93117  10.73932  35.43427  2      824
siesta:     23.50820  12.22464  35.47395  1      825
siesta:     26.14437  11.01144  37.07833  1      826
siesta:     26.61113  11.25143  33.09101  2      827
siesta:     25.86847  13.51722  32.12536  3      828
siesta:     28.96384  11.69741  34.02642  3      829
siesta:     26.85869   9.36738  30.85546  2      830
siesta:     27.38592   7.54568  31.61702  1      831
siesta:     24.98030   9.18029  30.04099  1      832
siesta:     28.71251   9.94374  28.67661  2      833
siesta:     28.13992  12.28133  27.75253  3      834
siesta:     31.09168  10.14027  29.69328  3      835
siesta:     28.80511   8.07480  26.40515  2      836
siesta:     29.25864   6.23799  27.22907  1      837
siesta:     26.94184   7.96709  25.57556  1      838
siesta:     30.66649   8.43385  24.19984  2      839
siesta:     30.90081  10.95664  23.72552  3      840
siesta:     32.97195   7.63828  25.00487  3      841
siesta:     30.09957   7.10348  21.67706  2      842
siesta:     29.17171   5.31202  22.12303  1      843
siesta:     28.80700   8.29779  20.59046  1      844
siesta:     32.28976   6.46476  19.87804  2      845
siesta:     31.34679   6.50822  17.48942  3      846
siesta:     33.92060   8.44897  19.95741  3      847
siesta:     33.84501   4.01378  20.16339  2      848
siesta:     35.77064   4.40684  19.53600  1      849
siesta:     33.87713   3.59237  22.18350  1      850
siesta:     32.96818   1.54580  18.89538  2      851
siesta:     34.24563  45.88446  20.00843  3      852
siesta:     30.53043   1.09037  19.64182  3      853
siesta:     33.12880   1.12817  16.00410  2      854
siesta:     32.68472  45.38746  15.64505  1      855
siesta:     31.63592   2.27523  15.17262  1      856
siesta:     35.60623   1.67619  14.58302  2      857
siesta:     36.08245   4.18952  14.68507  3      858
siesta:     37.49407   0.63117  15.97197  3      859
siesta:     35.87080   0.83148  11.79001  2      860
siesta:     34.02642   0.21732  11.13049  1      861
siesta:     36.37535   2.50578  10.71664  1      862
siesta:     37.82855  45.00196  11.10592  2      863
siesta:     38.06666  44.88479   8.54157  3      864
siesta:     40.12646  45.86367  11.89016  3      865
siesta:     37.54509  42.25996  12.06213  2      866
siesta:     39.28175  41.27730  11.50655  1      867
siesta:     37.53376  42.32988  14.12193  1      868
siesta:     35.30577  40.57999  11.22120  2      869
siesta:     35.57978  38.31043  12.40417  3      870
siesta:     33.16471  41.56832  12.23409  3      871
siesta:     34.82767  39.93371   8.41495  2      872
siesta:     36.43960  40.64803   7.35104  1      873
siesta:     34.89003  37.90036   8.24866  1      874
siesta:     32.40504  40.81999   7.00144  2      875
siesta:     31.99686  43.26908   7.58914  3      876
siesta:     32.94550  40.90314   4.48999  3      877
siesta:     29.89926  39.32900   7.36616  2      878
siesta:     30.19217  38.07422   8.96675  1      879
siesta:     28.43661  40.69905   7.90095  1      880
siesta:     28.78999  37.71895   5.20242  2      881
siesta:     30.75908  36.32055   4.29724  3      882
siesta:     27.21207  35.97473   6.23421  3      883
siesta:     27.38025  38.91515   2.94797  2      884
siesta:     28.83723  39.31388   1.52879  1      885
siesta:     26.13492  37.43171   2.21098  1      886
siesta:     25.77210  41.32455   3.29568  2      887
siesta:     24.17528  40.89558   5.27045  3      888
siesta:     27.34246  43.21427   4.07047  3      889
siesta:     24.15449  42.30532   1.05069  2      890
siesta:     24.98408  41.52108  44.01552  1      891
siesta:     22.28366  41.50974   1.28501  1      892
siesta:     23.82568  45.17203   0.62928  2      893
siesta:     26.13681  46.13201  44.65992  3      894
siesta:     22.46507  45.48006  43.17459  3      895
siesta:     22.67861   0.60660   2.73066  2      896
siesta:     23.23797  46.08099   4.53723  1      897
siesta:     23.56489   2.46042   2.48499  1      898
siesta:     19.77788   1.01289   2.94230  2      899
siesta:     18.73286  45.02652   3.69631  3      900
siesta:     19.34513   2.60215   4.92652  3      901
siesta:     18.16972   1.90673   0.66518  2      902
siesta:     19.38293   3.02545  44.13457  1      903
siesta:     17.60848   0.21165  44.29898  1      904
siesta:     15.68662   3.43174   1.06959  2      905
siesta:     16.33480   5.83737   1.72343  3      906
siesta:     14.61137   3.65284  43.44293  3      907
siesta:     13.56257   2.54735   2.87427  2      908
siesta:     14.37515   1.15273   4.14606  1      909
siesta:     13.03345   4.19519   4.01378  1      910
siesta:     11.05301   1.42107   1.82170  2      911
siesta:     11.66906  45.57076   0.47432  3      912
siesta:      9.71509   0.51401   3.81536  3      913
siesta:      9.16518   2.94042   0.16630  2      914
siesta:      9.83981   2.85538  42.91003  1      915
siesta:      7.34537   1.95776   0.25133  1      916
siesta:      8.64928   5.73910   0.79746  2      917
siesta:      7.90473   5.82225   3.27112  3      918
siesta:     10.93018   6.92396   0.72754  3      919
siesta:      6.68396   7.29057  43.96450  2      920
siesta:      6.36838   6.26822  42.19193  1      921
siesta:      4.94919   7.25655   0.37984  1      922
siesta:      7.25277  10.07602  43.29364  2      923
siesta:      8.27700  11.10781   0.71243  3      924
siesta:      9.16140  10.14027  41.57021  3      925
siesta:      5.13061  11.92229  42.45649  2      926
siesta:      3.48655  11.59347  43.67537  1      927
siesta:      5.83170  13.81579  42.86656  1      928
siesta:      4.19519  11.96008  39.69371  2      929
siesta:      5.70886  13.52666  38.33689  3      930
siesta:      4.67707   9.61115  38.73940  3      931
siesta:      1.43997  12.74621  39.07766  2      932
siesta:      0.24377  11.94874  40.56299  1      933
siesta:      1.34360  14.80790  39.30254  1      934
siesta:      0.16252  12.08102  36.51897  2      935
siesta:      0.49511   9.57147  36.06922  3      936
siesta:     40.19449  12.25677  36.87802  3      937
siesta:      0.89195  13.53611  34.08500  2      938
siesta:      2.77034  14.33358  34.40815  1      939
siesta:      1.06014  12.12449  32.60913  1      940
siesta:     41.74974  15.67150  33.04376  2      941
siesta:     41.27730  17.26266  34.99585  3      942
siesta:      0.56881  17.08313  31.40537  3      943
siesta:     39.20427  15.04978  31.70017  2      944
siesta:     37.77753  14.86459  33.17038  1      945
siesta:     38.71294  16.67873  30.52287  1      946
siesta:     38.99829  12.68952  29.98619  2      947
siesta:     41.26219  12.34370  28.80133  3      948
siesta:     38.73940  10.64483  31.54710  3      949
siesta:     36.90637  12.45141  27.96796  2      950
siesta:     36.70417  10.43696  27.55033  1      951
siesta:     35.13569  13.07124  28.82211  1      952
siesta:     37.15770  13.83847  25.40549  2      953
siesta:     34.82956  14.72664  24.80078  3      954
siesta:     38.53909  15.98709  25.71162  3      955
siesta:     38.17626  12.48543  23.02443  2      956
siesta:     37.01597  10.83380  22.67861  1      957
siesta:     37.86824  13.79879  21.46352  1      958
siesta:     40.95038  11.61048  22.83735  2      959
siesta:     42.46594  13.36415  23.94662  3      960
siesta:     41.22061   9.50533  24.29244  3      961
siesta:     42.12768  11.13805  20.18795  2      962
siesta:     41.38124  12.56101  18.92372  1      963
siesta:      1.56280  11.47064  20.33346  1      964
siesta:     41.73840   8.57558  18.83491  2      965
siesta:     39.66915   7.38694  19.82323  3      966
siesta:     41.04865   9.08392  16.41606  3      967
siesta:      1.35682   6.66507  18.69696  2      968
siesta:      2.64751   7.32269  17.20407  1      969
siesta:      2.35460   6.79735  20.50543  1      970
siesta:      0.79180   3.84370  18.21886  2      971
siesta:     41.86501   3.66985  16.14016  3      972
siesta:      3.00656   2.78735  17.51399  3      973
siesta:     42.25996   2.15996  20.31267  2      974
siesta:      0.58393   2.74577  22.06823  1      975
siesta:     40.26063   2.68152  20.44684  1      976
siesta:     42.32421  45.48384  20.29189  2      977
siesta:      1.38328  44.77141  22.13248  3      978
siesta:     39.99607  44.74306  21.12715  3      979
siesta:      0.37417  43.95883  17.87871  2      980
siesta:     41.67604  44.59189  16.41417  1      981
siesta:      2.25633  44.52197  17.27777  1      982
siesta:      0.31747  41.04298  17.82579  2      983
siesta:      0.51590  40.19071  20.23897  3      984
siesta:     40.52330  40.35134  17.09825  3      985
siesta:      2.19019  39.52175  16.15716  2      986
siesta:      4.06669  40.04520  16.76944  1      987
siesta:      1.94075  37.48840  16.55212  1      988
siesta:      2.12594  39.73529  13.24132  2      989
siesta:      0.43086  38.03831  12.31535  3      990
siesta:      1.13762  42.04642  12.66306  3      991
siesta:      4.57881  39.57277  11.66528  2      992
siesta:      4.04024  39.73529   9.71131  1      993
siesta:      5.71642  41.20738  12.13583  1      994
siesta:      6.34381  37.24841  11.82402  2      995
siesta:      5.13439  35.36057  13.09770  3      996
siesta:      6.64617  36.35646   9.42974  3      997
siesta:      8.97998  37.51108  13.01455  2      998
siesta:     10.01366  38.95294  11.97331  1      999
siesta:      8.76833  38.21973  14.93451  1     1000
siesta:     10.69018  35.16593  13.14494  2     1001
siesta:     11.31191  34.50074  10.74688  3     1002
siesta:     12.87093  35.92371  14.25232  3     1003
siesta:      9.77745  32.74708  14.48287  2     1004
siesta:      8.82880  33.30455  16.22708  1     1005
siesta:      8.34125  31.91560  13.23943  1     1006
siesta:     11.59347  30.56633  15.15939  2     1007
siesta:     13.64194  31.49608  16.41795  3     1008
siesta:     10.32925  29.13581  16.91684  3     1009
siesta:     12.57424  28.77109  13.09392  2     1010
siesta:     10.98120  27.59001  12.51566  1     1011
siesta:     13.06935  29.93138  11.45930  1     1012
siesta:     14.74932  26.93428  13.66084  2     1013
siesta:     14.37326  25.86658  15.96441  3     1014
siesta:     14.44696  24.96896  12.04323  3     1015
siesta:     17.52344  27.79788  13.46808  2     1016
siesta:     17.97508  27.89615  11.44986  1     1017
siesta:     17.58391  29.70084  14.21264  1     1018
siesta:     19.67017  26.26909  14.74554  2     1019
siesta:     18.91617  23.85591  15.15750  3     1020
siesta:     21.53911  26.04422  13.00321  3     1021
siesta:     20.85314  27.25364  17.22864  2     1022
siesta:     21.84713  28.98652  16.74865  1     1023
siesta:     19.29222  27.77332  18.47775  1     1024
siesta:     22.63515  25.54911  18.79900  2     1025
siesta:     21.16116  23.89182  20.13315  3     1026
siesta:     23.96930  24.09213  17.16250  3     1027
siesta:     24.57590  26.73586  20.62826  2     1028
siesta:     25.89682  25.24297  21.15549  1     1029
siesta:     25.62659  28.14559  19.58324  1     1030
siesta:     23.68962  28.00953  23.12081  2     1031
siesta:     24.97652  30.21862  23.42505  3     1032
siesta:     21.28399  28.85235  22.79578  3     1033
siesta:     23.77465  26.51287  25.63792  2     1034
siesta:     22.05878  27.00609  26.66783  1     1035
siesta:     23.61403  24.52488  25.11258  1     1036
siesta:     26.00642  26.74153  27.51253  2     1037
siesta:     26.56200  24.36992  28.34023  3     1038
siesta:     28.08512  27.49175  26.20106  3     1039
siesta:     25.76454  28.38559  29.90115  2     1040
siesta:     24.26031  29.72162  29.54966  1     1041
siesta:     25.19573  27.17805  31.47907  1     1042
siesta:     28.04166  29.95217  30.84223  2     1043
siesta:     28.31945  31.99308  29.24730  3     1044
siesta:     27.36325  30.98774  33.10046  3     1045
siesta:     30.67027  28.72574  31.13703  2     1046
siesta:     30.38681  26.69428  31.38647  1     1047
siesta:     31.67182  28.96762  29.35313  1     1048
siesta:     32.44283  29.57989  33.26864  2     1049
siesta:     31.45072  28.69550  35.46639  3     1050
siesta:     34.68972  28.34590  33.04754  3     1051
siesta:     33.07589  32.38992  33.69194  2     1052
siesta:     31.34868  33.34045  34.28720  1     1053
siesta:     34.39681  32.41637  35.27553  1     1054
siesta:     34.26075  34.03776  31.60757  2     1055
siesta:     36.79865  34.02075  32.00441  3     1056
siesta:     33.95650  32.87558  29.33234  3     1057
siesta:     33.36313  36.79865  31.25419  2     1058
siesta:     34.35523  37.50919  29.57989  1     1059
siesta:     31.35813  36.68338  30.79688  1     1060
siesta:     33.61446  38.74318  33.39714  2     1061
siesta:     31.59056  38.44649  34.96184  3     1062
siesta:     35.65915  38.14981  34.84467  3     1063
siesta:     33.86013  41.56643  32.71684  2     1064
siesta:     35.51364  42.27886  33.71840  1     1065
siesta:     34.30421  41.65714  30.72318  1     1066
siesta:     31.66426  43.43537  33.16093  2     1067
siesta:     32.08945  45.52919  31.70962  3     1068
siesta:     29.58367  42.31476  32.15370  3     1069
siesta:     30.91215  44.36512  35.83111  2     1070
[...]
siesta:   1083   -0.361637    0.398329   -0.224027
siesta:   1084   -0.544240   -0.405283    0.531983
siesta:   1085   -0.269234   -0.142331    0.075448
siesta:   1086    0.562987   -0.994582    0.110727
siesta:   1087    0.658095    1.423260   -1.241406
siesta:   1088   -1.128391    0.611671   -0.579596
siesta:   1089   -0.666546    0.112576    0.447263
siesta:   1090    0.473717   -0.407573    0.749682
siesta:   1091   -1.005831   -0.078804   -0.652634
siesta:   1092   -0.735626    0.031841    1.251870
siesta:   1093    1.538199    0.328232   -0.607184
siesta:   1094   -0.346677   -0.591054   -0.594478
siesta:   1095    0.557370    0.603809    0.308834
siesta:   1096    0.360723   -0.107621   -0.774216
siesta:   1097   -0.193674   -0.558916   -0.388883
siesta:   1098   -0.912191   -1.395938    0.848589
siesta:   1099    0.044152    1.444805    0.573156
siesta:   1100    0.622649    0.221742    1.103664
siesta:   1101    0.460267    0.477998   -0.422183
siesta:   1102   -0.112507   -0.522895   -0.405920
siesta:   1103   -0.582470   -0.020461    0.893659
siesta:   1104    0.134868    1.175864   -0.765883
siesta:   1105   -0.696277   -1.043815   -0.548474
siesta:   1106    0.262275    0.294224    0.301721
siesta:   1107    0.250896   -0.386667    0.532320
siesta:   1108    0.533013    0.609338    0.535517
siesta:   1109    0.573162   -0.211857   -0.357886
siesta:   1110    0.015522    0.808366   -0.780110
siesta:   1111   -0.661902   -1.543005    0.478517
siesta:   1112    0.489468   -0.548373    0.292433
siesta:   1113    0.259866    0.681347    0.124295
siesta:   1114   -0.712734   -0.037781   -0.402569
siesta:   1115   -0.222493   -0.427684    0.902819
siesta:   1116    1.748179   -0.066904   -0.034472
siesta:   1117   -0.978417    0.888296    0.145925
siesta:   1118   -0.792630    0.188457   -0.724336
siesta:   1119   -0.679118   -0.584610   -0.467731
siesta:   1120    0.496840   -0.674826   -0.224472
siesta:   1121   -0.712040    0.602195   -0.818111
siesta:   1122   -0.097637   -1.444570   -0.150789
siesta:   1123    1.186389    1.376660    0.807911
siesta:   1124   -0.772221   -0.103192   -0.879902
siesta:   1125   -0.206109   -0.737008    0.767594
siesta:   1126    0.023495    0.990342    0.480881
siesta:   1127   -0.090015    0.105836   -0.136496
siesta:   1128    0.395141    0.964039   -0.587964
siesta:   1129   -0.061011   -1.191089   -0.222884
siesta:   1130    0.393848    0.565503   -0.502914
siesta:   1131   -0.467300   -0.696428    0.974418
siesta:   1132    0.150145    0.988504    0.385805
siesta:   1133    0.799056    0.477661   -0.569065
siesta:   1134   -0.113074   -1.298833   -0.541828
siesta:   1135   -0.448575    0.632292    0.793438
siesta:   1136    0.104736    0.124592    0.476234
siesta:   1137    0.523920   -0.082833   -0.482206
siesta:   1138   -0.753961   -0.344483   -0.243333
siesta:   1139   -0.437291   -0.426519   -0.375234
siesta:   1140    0.933022    0.368240    1.837237
siesta:   1141    0.135214    0.087422   -1.821954
siesta:   1142   -0.568003    0.036411    0.021713
siesta:   1143   -0.237170    0.034093    0.338963
siesta:   1144    0.253986    0.506122    0.261235
siesta:   1145    0.594857    0.554508    0.346438
siesta:   1146    1.170989    0.143564   -1.145918
siesta:   1147   -1.059289   -1.686554   -0.154881
siesta:   1148    0.420956    0.175345   -0.043849
siesta:   1149   -0.643649   -0.270497   -0.377905
siesta:   1150   -0.595836    0.278945    1.058081
siesta:   1151   -0.374212   -0.125625    0.007310
siesta:   1152   -0.926005    0.645160    0.751969
siesta:   1153    1.439790   -0.122497   -0.069762
siesta:   1154   -0.193598   -0.832516   -0.238760
siesta:   1155    0.397724    0.710972   -0.128022
siesta:   1156    0.700672   -0.608561   -0.666184
siesta:   1157    0.510077   -0.032669   -0.012861
siesta:   1158   -1.485482   -0.991777    1.164619
siesta:   1159   -0.512699    1.508498   -0.280812
siesta:   1160    0.263180    0.617069    0.519216
siesta:   1161    0.493067    0.683169   -0.507951
siesta:   1162    0.166022   -0.804777   -0.344661
siesta:   1163   -0.728638    0.110782    0.411162
siesta:   1164    0.247030    0.281279   -1.029148
siesta:   1165   -0.374695   -1.346825    0.790323
siesta:   1166    0.361208    0.817214   -0.200880
siesta:   1167    0.162793    0.128614    0.826800
siesta:   1168    0.467813    0.757073   -0.280791
siesta:   1169    0.127647   -0.499890   -0.704828
siesta:   1170   -0.267199   -0.651534   -1.103622
siesta:   1171   -0.802893   -0.808359    1.776172
siesta:   1172    0.600574   -0.311655   -0.530259
siesta:   1173   -0.162674    0.708381    0.666209
siesta:   1174    0.129067    0.634429   -0.689928
siesta:   1175    0.311988   -0.468493   -0.410330
siesta:   1176   -0.391881   -0.911923    0.962605
siesta:   1177   -0.033482    1.005156   -0.539929
siesta:   1178    0.754947   -0.630858    0.260412
siesta:   1179    0.129951   -0.653180    0.277013
siesta:   1180   -0.473139    0.129518    0.025960
siesta:   1181   -0.467106   -0.086287    0.007604
siesta:   1182   -1.077581    0.318484   -1.295567
siesta:   1183    1.062489    0.628565    0.120935
siesta:   1184   -0.307060   -0.053122    0.214874
siesta:   1185    0.631496    0.679846   -1.005043
siesta:   1186    0.456459   -0.467118    0.541319
siesta:   1187   -0.129986    1.013449   -0.421645
siesta:   1188    1.152904   -0.734436   -0.238805
siesta:   1189   -1.268205   -0.368716    0.905760
siesta:   1190    0.521838    0.030353   -0.442078
siesta:   1191   -0.232904   -0.942154    0.098892
siesta:   1192   -0.809760    0.377087    0.182539
siesta:   1193   -0.010787   -0.071663    0.081562
siesta:   1194   -0.364595    1.959986    0.246694
siesta:   1195    1.492622   -0.454201   -0.137865
siesta:   1196    0.941571    0.490705    0.844789
siesta:   1197    0.649795   -0.839197   -0.206290
siesta:   1198   -1.370153   -0.199529   -0.142428
siesta:   1199    0.524174    0.784594    0.283446
siesta:   1200    0.297171   -0.867716   -1.154777
siesta:   1201   -1.207188    0.831878    0.255284
siesta:   1202   -0.486237   -0.265348   -0.122569
siesta:   1203   -0.190890    0.277094    0.664151
siesta:   1204    1.158889   -0.535942    0.436598
siesta:   1205   -0.090182   -0.976606   -0.375170
siesta:   1206   -1.159127    0.013962   -0.499537
siesta:   1207    1.292852    0.660580    0.621023
siesta:   1208    0.639814    0.603607    0.388202
siesta:   1209   -0.423690   -0.745580   -0.219268
siesta:   1210   -0.082764    0.448076   -0.256350
siesta:   1211    0.040436    0.104082    0.605013
siesta:   1212   -0.093398   -1.350527    0.895492
siesta:   1213    0.328107    0.297643   -1.152302
siesta:   1214   -0.269329   -0.372851    0.197968
siesta:   1215    0.208357    0.777702   -0.201035
siesta:   1216   -0.202936    0.319750    0.695500
siesta:   1217    0.012818   -0.520487    0.102163
siesta:   1218    0.084273   -0.913275   -1.160223
siesta:   1219    0.660155    1.304213    0.437307
siesta:   1220   -0.381191    0.758160   -0.198045
siesta:   1221   -0.293692    0.091772    0.671075
siesta:   1222   -0.188756   -0.583894    0.005381
siesta:   1223    0.493694    0.476828   -0.323640
siesta:   1224   -0.162728   -0.544609    0.838746
siesta:   1225    0.508815   -0.377737   -1.314353
siesta:   1226   -0.053341   -0.260098   -0.392639
siesta:   1227   -0.273346    0.369645   -0.611866
siesta:   1228   -0.024124    0.763234    0.396467
siesta:   1229   -0.225379   -0.476843   -0.860494
siesta:   1230    0.448852    1.474700   -0.284897
siesta:   1231   -0.333748   -0.909925    1.296332
siesta:   1232   -0.646474    1.004019   -0.524361
siesta:   1233    0.585889    0.131590    0.846159
siesta:   1234   -0.161474   -1.037595    0.065024
siesta:   1235   -0.499369    0.995596    0.927274
siesta:   1236    1.198268   -0.963877   -0.265011
siesta:   1237   -1.316094   -0.138507   -1.393977
siesta:   1238    0.227757    0.318399    0.652783
siesta:   1239    0.162489    0.082955   -0.930692
siesta:   1240   -0.880374    0.781110    0.108869
siesta:   1241   -1.182265    0.505759    0.022567
siesta:   1242   -0.611677   -0.092081    0.975549
siesta:   1243    0.598423   -0.177671   -0.927102
siesta:   1244   -0.618903    0.048577   -0.643419
siesta:   1245    0.573975   -0.076234    0.347323
siesta:   1246   -0.212529    0.293271   -0.621054
siesta:   1247    0.382473   -1.054101   -1.126212
siesta:   1248    0.171703    0.705299   -0.345764
siesta:   1249   -1.269555   -0.552021    0.027390
siesta:   1250    0.257508   -0.094923    1.012049
siesta:   1251   -0.012704   -0.014770    0.054769
siesta:   1252   -0.652498   -0.186154    0.705393
siesta:   1253    0.792038    0.041984    0.469501
siesta:   1254   -0.322153   -0.708340    0.820517
siesta:   1255   -0.434482    0.926355    0.498423
siesta:   1256    0.100592   -0.649715    1.307374
siesta:   1257    0.638293    0.637506    0.754640
siesta:   1258   -0.008045   -0.121534   -0.574710
siesta:   1259   -0.021100    0.364875   -0.695762
siesta:   1260   -0.096256    0.082893   -0.741373
siesta:   1261    0.756601    0.092025   -0.729798
siesta:   1262   -0.299035   -0.234135   -0.464087
siesta:   1263    0.683055    0.097356   -1.083298
siesta:   1264   -0.079580   -0.246581    0.374370
siesta:   1265    0.922824   -0.743053    0.769806
siesta:   1266   -0.187837    0.676026    0.489282
siesta:   1267    0.043855   -0.673135    1.046535
siesta:   1268    0.741587    0.282334    0.819122
siesta:   1269   -0.612709    0.537348    0.897268
siesta:   1270   -0.675425    0.084180   -0.175390
siesta:   1271    0.237736    0.022744   -0.092957
siesta:   1272   -0.514947   -0.642182    0.399934
siesta:   1273   -0.387356    0.303306   -0.017922
siesta:   1274    0.399434   -0.244742    0.335404
siesta:   1275    0.540461    0.408744   -0.460773
siesta:   1276   -0.077432    0.093917   -0.091570
siesta:   1277   -0.305227   -0.472500   -0.420232
siesta:   1278    0.009396    0.749162   -0.529509
siesta:   1279   -0.315356    0.232603   -0.150558
siesta:   1280    0.353745    0.313932   -0.029902
siesta:   1281   -0.536280   -0.637510   -0.719186
siesta:   1282    0.943899   -0.382573   -0.581292
siesta: ----------------------------------------
siesta:    Tot   -0.275585    0.111108    0.132309

siesta: Stress tensor (static) (eV/Ang**3):
siesta:    -0.000687   -0.004370    0.001845
siesta:    -0.004370    0.001324    0.000651
siesta:     0.001845    0.000651   -0.002627

siesta: Cell volume =      13041.289483 Ang**3

siesta: Pressure (static):
siesta:                Solid            Molecule  Units
siesta:           0.00000722          0.00002909  Ry/Bohr**3
siesta:           0.00066322          0.00267049  eV/Ang**3
siesta:           1.06260537          4.27864316  kBar
(Free)E+ p_basis*V_orbitals  =     -374627.440041
(Free)Eharris+ p_basis*V_orbitals  =     -374627.459102

Optical: Performing optical calculation: 

Optical: Polarization type       = polarized   
Optical: Minimum of energy range =   0.0001 Ry 
Optical: Maximum of energy range =   7.3498 Ry 
Optical: Gaussian broadening     =   0.0037 Ry 
Optical: Scissor operator        =   0.0000 Ry 
Optical: Number of bands         =    13386
Optical: Number of electrons     =     5346
Optical: BZ mesh dimensions      =    1   1   1

Optical: electric field direction
Optical:      1.00000     0.00000     0.00000

Optical: Checking f-sum rule  0.880195
Optical: For insulators and closed shell systems
Optical: this number should be close to 1 if an enough
Optical: number of unoccupied bands have been included

* Maximum dynamic memory allocated : Node    0 =   308 MB
* Maximum dynamic memory allocated : Node    1 =   303 MB
* Maximum dynamic memory allocated : Node    2 =   304 MB
* Maximum dynamic memory allocated : Node    3 =   308 MB
* Maximum dynamic memory allocated : Node    4 =   301 MB
* Maximum dynamic memory allocated : Node    5 =   305 MB
* Maximum dynamic memory allocated : Node    6 =   303 MB
* Maximum dynamic memory allocated : Node    7 =   299 MB
* Maximum dynamic memory allocated : Node    8 =   301 MB
* Maximum dynamic memory allocated : Node    9 =   306 MB
* Maximum dynamic memory allocated : Node   10 =   297 MB
* Maximum dynamic memory allocated : Node   11 =   306 MB
* Maximum dynamic memory allocated : Node   12 =   305 MB
* Maximum dynamic memory allocated : Node   13 =   302 MB
* Maximum dynamic memory allocated : Node   14 =   304 MB
* Maximum dynamic memory allocated : Node   15 =   298 MB
* Maximum dynamic memory allocated : Node   16 =   301 MB
* Maximum dynamic memory allocated : Node   17 =   301 MB
* Maximum dynamic memory allocated : Node   18 =   305 MB
* Maximum dynamic memory allocated : Node   19 =   304 MB
* Maximum dynamic memory allocated : Node   20 =   304 MB
* Maximum dynamic memory allocated : Node   21 =   308 MB
* Maximum dynamic memory allocated : Node   22 =   303 MB
* Maximum dynamic memory allocated : Node   23 =   304 MB
* Maximum dynamic memory allocated : Node   24 =   302 MB
* Maximum dynamic memory allocated : Node   25 =   306 MB
* Maximum dynamic memory allocated : Node   26 =   304 MB
* Maximum dynamic memory allocated : Node   27 =   305 MB
* Maximum dynamic memory allocated : Node   28 =   309 MB
* Maximum dynamic memory allocated : Node   29 =   305 MB
* Maximum dynamic memory allocated : Node   30 =   302 MB
* Maximum dynamic memory allocated : Node   31 =   305 MB
* Maximum dynamic memory allocated : Node   32 =   303 MB
* Maximum dynamic memory allocated : Node   33 =   304 MB
* Maximum dynamic memory allocated : Node   34 =   308 MB
* Maximum dynamic memory allocated : Node   35 =   305 MB
* Maximum dynamic memory allocated : Node   36 =   306 MB
* Maximum dynamic memory allocated : Node   37 =   306 MB
* Maximum dynamic memory allocated : Node   38 =   305 MB
* Maximum dynamic memory allocated : Node   39 =   302 MB
* Maximum dynamic memory allocated : Node   40 =   304 MB
* Maximum dynamic memory allocated : Node   41 =   305 MB
* Maximum dynamic memory allocated : Node   42 =   304 MB
* Maximum dynamic memory allocated : Node   43 =   303 MB
* Maximum dynamic memory allocated : Node   44 =   301 MB
* Maximum dynamic memory allocated : Node   45 =   302 MB
* Maximum dynamic memory allocated : Node   46 =   291 MB
* Maximum dynamic memory allocated : Node   47 =   290 MB
* Maximum dynamic memory allocated : Node   48 =   294 MB
* Maximum dynamic memory allocated : Node   49 =   289 MB
* Maximum dynamic memory allocated : Node   50 =   292 MB
* Maximum dynamic memory allocated : Node   51 =   291 MB
* Maximum dynamic memory allocated : Node   52 =   291 MB
* Maximum dynamic memory allocated : Node   53 =   291 MB
* Maximum dynamic memory allocated : Node   54 =   291 MB
* Maximum dynamic memory allocated : Node   55 =   288 MB
* Maximum dynamic memory allocated : Node   56 =   293 MB
* Maximum dynamic memory allocated : Node   57 =   289 MB
* Maximum dynamic memory allocated : Node   58 =   293 MB
* Maximum dynamic memory allocated : Node   59 =   293 MB
* Maximum dynamic memory allocated : Node   60 =   292 MB
* Maximum dynamic memory allocated : Node   61 =   290 MB
* Maximum dynamic memory allocated : Node   62 =   293 MB
* Maximum dynamic memory allocated : Node   63 =   289 MB

* Maximum memory occured during rdiag                         

timer: CPU execution times:
timer:  Routine       Calls   Time/call    Tot.time        %
timer:  siesta            114655037.74314655037.743   100.00
timer:  Setup             1      89.509      89.509     0.00
timer:  bands             1       0.008       0.008     0.00
timer:  writewave         1       0.053       0.053     0.00
timer:  KSV_init          1       0.007       0.007     0.00
timer:  IterMD            1  169402.441  169402.441     1.16
timer:  hsparse           1      34.219      34.219     0.00
timer:  overlap           1      98.990      98.990     0.00
timer:  IterSCF          21    7954.989  167054.768     1.14
timer:  kinefsm           2      51.218     102.436     0.00
timer:  nlefsm            2     234.151     468.302     0.00
timer:  DHSCF            22    1029.096   22640.117     0.15
timer:  DHSCF1            1      43.760      43.760     0.00
timer:  DHSCF2            1    1089.418    1089.418     0.01
timer:  REORD           134       0.091      12.242     0.00
timer:  POISON           23      21.395     492.083     0.00
timer:  DHSCF3           22     954.114   20990.513     0.14
timer:  rhoofd           22     366.820    8070.032     0.06
timer:  cellXC           22      70.667    1554.676     0.01
timer:  vmat             22     415.075    9131.658     0.06
timer:  MolMec            2       0.111       0.222     0.00
timer:  diagon           21    5627.713  118181.970     0.81
timer:  r-eigvec         21    5466.987  114806.722     0.78
timer:  r-buildHS        21       0.941      19.753     0.00
timer:  rdiag            22    5469.137  120321.004     0.82
timer:  rdiag1           22     188.832    4154.302     0.03
timer:  rdiag2           22    1229.493   27048.838     0.18
timer:  rdiag3           22    3653.292   80372.415     0.55
timer:  rdiag4           22     373.899    8225.773     0.06
timer:  r-buildD         21     160.168    3363.527     0.02
timer:  DHSCF4            1     511.565     511.565     0.00
timer:  dfscf             1     452.225     452.225     0.00
timer:  overfsm           1       5.090       5.090     0.00
timer:  optical           114485466.52114485466.521    98.84
timer:  phirphiopt        1    1578.482    1578.482     0.01
timer:  transrate         114478031.80514478031.805    98.79
  

elaps: ELAPSED times:
elaps:  Routine       Calls   Time/call    Tot.time        %
elaps:  siesta            1   14801.110   14801.110   100.00
elaps:  Setup             1       1.412       1.412     0.01
elaps:  bands             1       0.000       0.000     0.00
elaps:  writewave         1       0.001       0.001     0.00
elaps:  KSV_init          1       0.000       0.000     0.00
elaps:  IterMD            1    2676.610    2676.610    18.08
elaps:  hsparse           1       0.541       0.541     0.00
elaps:  overlap           1       1.450       1.450     0.01
elaps:  IterSCF          21     125.636    2638.361    17.83
elaps:  kinefsm           2       0.751       1.502     0.01
elaps:  nlefsm            2       3.704       7.408     0.05
elaps:  DHSCF            22      16.146     355.204     2.40
elaps:  DHSCF1            1       0.670       0.670     0.00
elaps:  DHSCF2            1      17.086      17.086     0.12
elaps:  REORD           134       0.001       0.174     0.00
elaps:  POISON           23       0.327       7.529     0.05
elaps:  DHSCF3           22      14.941     328.708     2.22
elaps:  rhoofd           22       6.578     144.718     0.98
elaps:  cellXC           22       1.110      24.417     0.16
elaps:  vmat             22       6.496     142.903     0.97
elaps:  MolMec            2       0.002       0.003     0.00
elaps:  diagon           21      89.078    1870.646    12.64
elaps:  r-eigvec         21      86.556    1817.674    12.28
elaps:  r-buildHS        21       0.014       0.299     0.00
elaps:  rdiag            22      86.575    1904.660    12.87
elaps:  rdiag1           22       3.031      66.675     0.45
elaps:  rdiag2           22      19.713     433.679     2.93
elaps:  rdiag3           22      57.595    1267.081     8.56
elaps:  rdiag4           22       5.872     129.194     0.87
elaps:  r-buildD         21       2.514      52.795     0.36
elaps:  DHSCF4            1       8.661       8.661     0.06
elaps:  dfscf             1       7.703       7.703     0.05
elaps:  overfsm           1       0.079       0.079     0.00
elaps:  optical           1   12122.286   12122.286    81.90
elaps:  phirphiopt        1      24.903      24.903     0.17
elaps:  transrate         1   12004.455   12004.455    81.10
  
>> End of run:  24-OCT-2014  14:16:14
