#            ENERGY              s1              s2              total
        -30.30000000        0.00000000        0.00000000        0.00000000
        -30.23933934       -0.00000000       -0.00000000       -0.00000000
        -30.17867868        0.00000053        0.00000053        0.00000105
        -30.11801802        0.00001688        0.00001688        0.00003375
        -30.05735736        0.00026077        0.00026074        0.00052151
        -29.99669670        0.00223882        0.00223853        0.00447735
        -29.93603604        0.01109563        0.01109440        0.02219003
        -29.87537538        0.03178418        0.03178213        0.06356631
        -29.81471471        0.05350690        0.05350545        0.10701236
        -29.75405405        0.05943831        0.05943714        0.11887544
        -29.69339339        0.05655003        0.05654917        0.11309920
        -29.63273273        0.05427665        0.05427723        0.10855388
        -29.57207207        0.04699155        0.04699210        0.09398365
        -29.51141141        0.03737007        0.03736886        0.07473893
        -29.45075075        0.03566056        0.03565902        0.07131958
        -29.39009009        0.03684429        0.03684514        0.07368943
        -29.32942943        0.03165581        0.03165763        0.06331343
        -29.26876877        0.02607831        0.02607861        0.05215692
        -29.20810811        0.02412254        0.02412200        0.04824454
        -29.14744745        0.01856068        0.01856056        0.03712125
        -29.08678679        0.01018320        0.01018312        0.02036631
        -29.02612613        0.00577642        0.00577584        0.01155226
        -28.96546547        0.00495944        0.00495908        0.00991852
        -28.90480480        0.00364860        0.00364910        0.00729770
        -28.84414414        0.00149049        0.00149107        0.00298155
        -28.78348348        0.00030232        0.00030252        0.00060484
        -28.72282282        0.00002965        0.00002968        0.00005933
        -28.66216216        0.00000140        0.00000140        0.00000279
        -28.60150150        0.00000000        0.00000000        0.00000000
        -28.54084084        0.00000000        0.00000000        0.00000000
        -28.48018018        0.00000000        0.00000000        0.00000000
        -28.41951952        0.00000000        0.00000000        0.00000000
        -28.35885886        0.00000000        0.00000000        0.00000000
        -28.29819820        0.00000000        0.00000000        0.00000000
        -28.23753754        0.00000000        0.00000000        0.00000000
        -28.17687688        0.00000000        0.00000000        0.00000000
        -28.11621622        0.00000000        0.00000000        0.00000000
        -28.05555556        0.00000000        0.00000000        0.00000000
        -27.99489489        0.00000000        0.00000000        0.00000000
        -27.93423423        0.00000000        0.00000000        0.00000000
        -27.87357357        0.00000000        0.00000000        0.00000000
        -27.81291291        0.00000000        0.00000000        0.00000000
        -27.75225225        0.00000000        0.00000000        0.00000000
        -27.69159159        0.00000000        0.00000000        0.00000000
        -27.63093093        0.00000000        0.00000000        0.00000000
        -27.57027027        0.00000000        0.00000000        0.00000000
        -27.50960961        0.00000000        0.00000000        0.00000000
        -27.44894895        0.00000000        0.00000000        0.00000000
        -27.38828829        0.00000000        0.00000000        0.00000000
        -27.32762763        0.00000000        0.00000000        0.00000000
        -27.26696697        0.00000000        0.00000000        0.00000000
        -27.20630631        0.00000000        0.00000000        0.00000000
        -27.14564565        0.00000000        0.00000000        0.00000000
        -27.08498498        0.00000000        0.00000000        0.00000000
        -27.02432432        0.00000000        0.00000000        0.00000000
        -26.96366366        0.00000000        0.00000000        0.00000000
        -26.90300300        0.00000000        0.00000000        0.00000000
        -26.84234234        0.00000000        0.00000000        0.00000000
        -26.78168168        0.00000000        0.00000000        0.00000000
        -26.72102102        0.00000000        0.00000000        0.00000000
        -26.66036036        0.00000000        0.00000000        0.00000000
        -26.59969970        0.00000000        0.00000000        0.00000000
        -26.53903904        0.00000000        0.00000000        0.00000000
        -26.47837838        0.00000000        0.00000000        0.00000000
        -26.41771772        0.00000000        0.00000000        0.00000000
        -26.35705706        0.00000000        0.00000000        0.00000000
        -26.29639640        0.00000000        0.00000000        0.00000000
        -26.23573574        0.00000000        0.00000000        0.00000000
        -26.17507508        0.00000000        0.00000000        0.00000000
        -26.11441441        0.00000000        0.00000000        0.00000000
        -26.05375375        0.00000000        0.00000000        0.00000000
        -25.99309309        0.00000000        0.00000000        0.00000000
        -25.93243243        0.00000000        0.00000000        0.00000000
        -25.87177177        0.00000000        0.00000000        0.00000000
        -25.81111111        0.00000000        0.00000000        0.00000000
        -25.75045045        0.00000000        0.00000000        0.00000000
        -25.68978979        0.00000000        0.00000000        0.00000000
        -25.62912913        0.00000000        0.00000000        0.00000000
        -25.56846847        0.00000000        0.00000000        0.00000000
        -25.50780781        0.00000000        0.00000000        0.00000000
        -25.44714715        0.00000000        0.00000000        0.00000000
        -25.38648649        0.00000000        0.00000000        0.00000000
        -25.32582583        0.00000000        0.00000000        0.00000000
        -25.26516517        0.00000000        0.00000000        0.00000000
        -25.20450450        0.00000000        0.00000000        0.00000000
        -25.14384384        0.00000000        0.00000000        0.00000000
        -25.08318318        0.00000000        0.00000000        0.00000000
        -25.02252252        0.00000000        0.00000000        0.00000000
        -24.96186186        0.00000000        0.00000000        0.00000000
        -24.90120120        0.00000000        0.00000000        0.00000000
        -24.84054054        0.00000000        0.00000000        0.00000000
        -24.77987988        0.00000000        0.00000000        0.00000000
        -24.71921922        0.00000000        0.00000000        0.00000000
        -24.65855856        0.00000000        0.00000000        0.00000000
        -24.59789790        0.00000000        0.00000000        0.00000000
        -24.53723724        0.00000000        0.00000000        0.00000000
        -24.47657658        0.00000000        0.00000000        0.00000000
        -24.41591592        0.00000000        0.00000000        0.00000000
        -24.35525526        0.00000000        0.00000000        0.00000000
        -24.29459459        0.00000000        0.00000000        0.00000000
        -24.23393393        0.00000000        0.00000000        0.00000000
        -24.17327327        0.00000000        0.00000000        0.00000000
        -24.11261261        0.00000000        0.00000000        0.00000000
        -24.05195195        0.00000000        0.00000000        0.00000000
        -23.99129129        0.00000000        0.00000000        0.00000000
        -23.93063063        0.00000000        0.00000000        0.00000000
        -23.86996997        0.00000000        0.00000000        0.00000000
        -23.80930931        0.00000000        0.00000000        0.00000000
        -23.74864865        0.00000000        0.00000000        0.00000000
        -23.68798799        0.00000000        0.00000000        0.00000000
        -23.62732733        0.00000000        0.00000000        0.00000000
        -23.56666667        0.00000000        0.00000000        0.00000000
        -23.50600601        0.00000000        0.00000000        0.00000000
        -23.44534535        0.00000000        0.00000000        0.00000000
        -23.38468468        0.00000000        0.00000000        0.00000000
        -23.32402402        0.00000000        0.00000000        0.00000000
        -23.26336336        0.00000000        0.00000000        0.00000000
        -23.20270270        0.00000000        0.00000000        0.00000000
        -23.14204204        0.00000000        0.00000000        0.00000000
        -23.08138138        0.00000000        0.00000000        0.00000000
        -23.02072072        0.00000000        0.00000000        0.00000000
        -22.96006006        0.00000000        0.00000000        0.00000000
        -22.89939940        0.00000000        0.00000000        0.00000000
        -22.83873874        0.00000000        0.00000000        0.00000000
        -22.77807808        0.00000000        0.00000000        0.00000000
        -22.71741742        0.00000000        0.00000000        0.00000000
        -22.65675676        0.00000000        0.00000000        0.00000000
        -22.59609610        0.00000000        0.00000000        0.00000000
        -22.53543544        0.00000000        0.00000000        0.00000000
        -22.47477477        0.00000000        0.00000000        0.00000000
        -22.41411411        0.00000000        0.00000000        0.00000000
        -22.35345345        0.00000000        0.00000000        0.00000000
        -22.29279279        0.00000000        0.00000000        0.00000000
        -22.23213213        0.00000000        0.00000000        0.00000000
        -22.17147147        0.00000000        0.00000000        0.00000000
        -22.11081081        0.00000000        0.00000000        0.00000000
        -22.05015015        0.00000000        0.00000000        0.00000000
        -21.98948949        0.00000000        0.00000000        0.00000000
        -21.92882883        0.00000000        0.00000000        0.00000000
        -21.86816817        0.00000000        0.00000000        0.00000000
        -21.80750751        0.00000000        0.00000000        0.00000000
        -21.74684685        0.00000000        0.00000000        0.00000000
        -21.68618619        0.00000000        0.00000000        0.00000000
        -21.62552553        0.00000000        0.00000000        0.00000000
        -21.56486486        0.00000000        0.00000000        0.00000000
        -21.50420420        0.00000000        0.00000000        0.00000000
        -21.44354354        0.00000000        0.00000000        0.00000000
        -21.38288288        0.00000000        0.00000000        0.00000000
        -21.32222222        0.00000000        0.00000000        0.00000000
        -21.26156156        0.00000000        0.00000000        0.00000000
        -21.20090090        0.00000000        0.00000000        0.00000000
        -21.14024024        0.00000000        0.00000000        0.00000000
        -21.07957958        0.00000000        0.00000000        0.00000000
        -21.01891892        0.00000000        0.00000000        0.00000000
        -20.95825826        0.00000000        0.00000000        0.00000000
        -20.89759760        0.00000000        0.00000000        0.00000000
        -20.83693694        0.00000000        0.00000000        0.00000000
        -20.77627628        0.00000000        0.00000000        0.00000000
        -20.71561562        0.00000001        0.00000001        0.00000003
        -20.65495495        0.00000047        0.00000047        0.00000094
        -20.59429429        0.00000854        0.00000854        0.00001707
        -20.53363363        0.00008385        0.00008384        0.00016769
        -20.47297297        0.00052677        0.00052670        0.00105348
        -20.41231231        0.00216898        0.00216875        0.00433773
        -20.35165165        0.00557635        0.00557606        0.01115241
        -20.29099099        0.00893865        0.00893843        0.01787708
        -20.23033033        0.01017293        0.01017262        0.02034555
        -20.16966967        0.01027936        0.01027901        0.02055837
        -20.10900901        0.01013063        0.01013049        0.02026111
        -20.04834835        0.01005242        0.01005239        0.02010481
        -19.98768769        0.01033372        0.01033364        0.02066735
        -19.92702703        0.01051525        0.01051502        0.02103028
        -19.86636637        0.01137928        0.01137893        0.02275820
        -19.80570571        0.01264454        0.01264429        0.02528883
        -19.74504505        0.01255256        0.01255246        0.02510502
        -19.68438438        0.01129917        0.01129906        0.02259823
        -19.62372372        0.01061676        0.01061653        0.02123329
        -19.56306306        0.01074019        0.01073991        0.02148010
        -19.50240240        0.01105363        0.01105340        0.02210703
        -19.44174174        0.01149510        0.01149488        0.02298997
        -19.38108108        0.01208530        0.01208505        0.02417035
        -19.32042042        0.01221019        0.01220991        0.02442010
        -19.25975976        0.01154721        0.01154693        0.02309414
        -19.19909910        0.01048142        0.01048117        0.02096259
        -19.13843844        0.00943565        0.00943541        0.01887106
        -19.07777778        0.00943753        0.00943722        0.01887475
        -19.01711712        0.01052804        0.01052769        0.02105573
        -18.95645646        0.01113927        0.01113898        0.02227825
        -18.89579580        0.01061301        0.01061281        0.02122582
        -18.83513514        0.00991479        0.00991462        0.01982941
        -18.77447447        0.00974424        0.00974407        0.01948830
        -18.71381381        0.00988609        0.00988592        0.01977201
        -18.65315315        0.00971070        0.00971054        0.01942124
        -18.59249249        0.00937449        0.00937432        0.01874881
        -18.53183183        0.00943711        0.00943685        0.01887396
        -18.47117117        0.01022078        0.01022040        0.02044119
        -18.41051051        0.01128122        0.01128076        0.02256198
        -18.34984985        0.01189554        0.01189510        0.02379064
        -18.28918919        0.01245999        0.01245963        0.02491961
        -18.22852853        0.01297927        0.01297894        0.02595821
        -18.16786787        0.01319047        0.01319025        0.02638072
        -18.10720721        0.01200943        0.01200948        0.02401891
        -18.04654655        0.00882581        0.00882600        0.01765180
        -17.98588589        0.00536145        0.00536149        0.01072294
        -17.92522523        0.00348534        0.00348519        0.00697053
        -17.86456456        0.00359811        0.00359804        0.00719615
        -17.80390390        0.00475675        0.00475681        0.00951356
        -17.74324324        0.00487159        0.00487169        0.00974329
        -17.68258258        0.00283889        0.00283895        0.00567785
        -17.62192192        0.00083324        0.00083326        0.00166650
        -17.56126126        0.00011873        0.00011874        0.00023747
        -17.50060060        0.00000813        0.00000813        0.00001626
        -17.43993994        0.00000027        0.00000027        0.00000053
        -17.37927928        0.00000000        0.00000000        0.00000000
        -17.31861862        0.00000003        0.00000003        0.00000006
        -17.25795796        0.00000169        0.00000169        0.00000339
        -17.19729730        0.00003772        0.00003771        0.00007543
        -17.13663664        0.00043738        0.00043732        0.00087469
        -17.07597598        0.00268358        0.00268330        0.00536688
        -17.01531532        0.00886079        0.00886010        0.01772089
        -16.95465465        0.01665199        0.01665100        0.03330299
        -16.89399399        0.02050248        0.02050143        0.04100391
        -16.83333333        0.02105253        0.02105177        0.04210429
        -16.77267267        0.02157279        0.02157255        0.04314534
        -16.71201201        0.02154785        0.02154781        0.04309566
        -16.65135135        0.02101532        0.02101498        0.04203030
        -16.59069069        0.02173125        0.02173057        0.04346183
        -16.53003003        0.02235138        0.02235066        0.04470204
        -16.46936937        0.02113640        0.02113578        0.04227218
        -16.40870871        0.02054641        0.02054576        0.04109217
        -16.34804805        0.02087817        0.02087757        0.04175574
        -16.28738739        0.02027258        0.02027190        0.04054448
        -16.22672673        0.02036202        0.02036093        0.04072295
        -16.16606607        0.02233440        0.02233308        0.04466749
        -16.10540541        0.02476354        0.02476232        0.04952586
        -16.04474474        0.02634342        0.02634231        0.05268573
        -15.98408408        0.02680232        0.02680126        0.05360357
        -15.92342342        0.02728522        0.02728411        0.05456933
        -15.86276276        0.02949301        0.02949172        0.05898473
        -15.80210210        0.03284911        0.03284752        0.06569663
        -15.74144144        0.03531757        0.03531565        0.07063322
        -15.68078078        0.03696230        0.03696020        0.07392250
        -15.62012012        0.03894387        0.03894182        0.07788569
        -15.55945946        0.03997302        0.03997101        0.07994403
        -15.49879880        0.04109015        0.04108785        0.08217800
        -15.43813814        0.04598633        0.04598343        0.09196976
        -15.37747748        0.05294783        0.05294407        0.10589190
        -15.31681682        0.05930519        0.05930109        0.11860628
        -15.25615616        0.06198168        0.06197817        0.12395985
        -15.19549550        0.06301348        0.06301005        0.12602353
        -15.13483483        0.06756249        0.06755891        0.13512140
        -15.07417417        0.07305951        0.07305632        0.14611584
        -15.01351351        0.07648696        0.07648386        0.15297082
        -14.95285285        0.07755432        0.07755085        0.15510516
        -14.89219219        0.07718820        0.07718518        0.15437338
        -14.83153153        0.07609543        0.07609413        0.15218956
        -14.77087087        0.07433047        0.07433031        0.14866078
        -14.71021021        0.07044557        0.07044488        0.14089045
        -14.64954955        0.06290864        0.06290672        0.12581536
        -14.58888889        0.05253701        0.05253468        0.10507169
        -14.52822823        0.03969170        0.03969059        0.07938229
        -14.46756757        0.02264979        0.02265047        0.04530026
        -14.40690691        0.00783505        0.00783599        0.01567105
        -14.34624625        0.00144420        0.00144452        0.00288872
        -14.28558559        0.00013405        0.00013410        0.00026815
        -14.22492492        0.00000772        0.00000772        0.00001544
        -14.16426426        0.00005112        0.00005111        0.00010224
        -14.10360360        0.00077083        0.00077071        0.00154154
        -14.04294294        0.00563238        0.00563176        0.01126414
        -13.98228228        0.02068896        0.02068764        0.04137659
        -13.92162162        0.04334848        0.04334710        0.08669558
        -13.86096096        0.06876249        0.06875977        0.13752226
        -13.80030030        0.09888185        0.09887544        0.19775729
        -13.73963964        0.12027358        0.12026501        0.24053859
        -13.67897898        0.13639804        0.13638863        0.27278667
        -13.61831832        0.15908638        0.15907982        0.31816620
        -13.55765766        0.17474160        0.17473973        0.34948133
        -13.49699700        0.17616456        0.17616313        0.35232770
        -13.43633634        0.17040814        0.17040554        0.34081367
        -13.37567568        0.15753130        0.15752939        0.31506068
        -13.31501502        0.13624777        0.13624680        0.27249457
        -13.25435435        0.12004722        0.12004625        0.24009347
        -13.19369369        0.11639777        0.11639613        0.23279391
        -13.13303303        0.12164389        0.12164127        0.24328516
        -13.07237237        0.12675247        0.12675058        0.25350305
        -13.01171171        0.11933983        0.11933942        0.23867925
        -12.95105105        0.10320967        0.10320912        0.20641880
        -12.89039039        0.09339470        0.09339364        0.18678834
        -12.82972973        0.09068467        0.09068339        0.18136805
        -12.76906907        0.09616892        0.09616679        0.19233571
        -12.70840841        0.11365548        0.11365243        0.22730791
        -12.64774775        0.12413143        0.12412810        0.24825952
        -12.58708709        0.11566844        0.11566524        0.23133367
        -12.52642643        0.10503092        0.10502871        0.21005963
        -12.46576577        0.09364272        0.09364296        0.18728568
        -12.40510511        0.06866320        0.06866525        0.13732845
        -12.34444444        0.04069862        0.04070035        0.08139897
        -12.28378378        0.02363450        0.02363515        0.04726965
        -12.22312312        0.01491085        0.01491065        0.02982150
        -12.16246246        0.01475801        0.01475679        0.02951481
        -12.10180180        0.02548976        0.02548709        0.05097685
        -12.04114114        0.04198845        0.04198384        0.08397229
        -11.98048048        0.06530352        0.06529732        0.13060084
        -11.91981982        0.09556364        0.09555775        0.19112139
        -11.85915916        0.11432757        0.11432356        0.22865114
        -11.79849850        0.11355657        0.11355398        0.22711055
        -11.73783784        0.11178751        0.11178348        0.22357099
        -11.67717718        0.13415739        0.13414896        0.26830634
        -11.61651652        0.17086535        0.17085523        0.34172059
        -11.55585586        0.18175135        0.18174343        0.36349479
        -11.49519520        0.16518964        0.16518307        0.33037270
        -11.43453453        0.14763215        0.14762767        0.29525982
        -11.37387387        0.13638870        0.13638607        0.27277476
        -11.31321321        0.13284780        0.13283939        0.26568719
        -11.25255255        0.13964496        0.13962957        0.27927453
        -11.19189189        0.14243424        0.14242422        0.28485846
        -11.13123123        0.12403383        0.12403631        0.24807015
        -11.07057057        0.09589647        0.09590351        0.19179998
        -11.00990991        0.07775022        0.07775433        0.15550455
        -10.94924925        0.06617266        0.06617343        0.13234609
        -10.88858859        0.05873412        0.05873197        0.11746609
        -10.82792793        0.07099101        0.07098165        0.14197266
        -10.76726727        0.11008500        0.11006831        0.22015331
        -10.70660661        0.15650503        0.15649760        0.31300263
        -10.64594595        0.17749506        0.17749951        0.35499456
        -10.58528529        0.17058181        0.17057775        0.34115956
        -10.52462462        0.16084076        0.16082501        0.32166577
        -10.46396396        0.16240446        0.16238967        0.32479413
        -10.40330330        0.17207902        0.17207550        0.34415452
        -10.34264264        0.18505881        0.18506444        0.37012325
        -10.28198198        0.19143157        0.19143809        0.38286967
        -10.22132132        0.18966632        0.18966800        0.37933432
        -10.16066066        0.17680912        0.17680581        0.35361493
        -10.10000000        0.15258867        0.15258398        0.30517265
        -10.03933934        0.13711625        0.13710989        0.27422614
         -9.97867868        0.14587155        0.14586415        0.29173570
         -9.91801802        0.17174621        0.17174162        0.34348783
         -9.85735736        0.20214609        0.20214029        0.40428638
         -9.79669670        0.23400834        0.23399618        0.46800452
         -9.73603604        0.25512276        0.25510940        0.51023215
         -9.67537538        0.26018790        0.26018028        0.52036818
         -9.61471471        0.26225896        0.26225666        0.52451562
         -9.55405405        0.26374688        0.26374410        0.52749098
         -9.49339339        0.26537874        0.26537234        0.53075109
         -9.43273273        0.27239691        0.27238866        0.54478557
         -9.37207207        0.27873518        0.27872876        0.55746394
         -9.31141141        0.28375786        0.28375477        0.56751263
         -9.25075075        0.29287192        0.29286876        0.58574068
         -9.19009009        0.30024222        0.30023707        0.60047930
         -9.12942943        0.29776600        0.29776118        0.59552718
         -9.06876877        0.28497473        0.28496980        0.56994453
         -9.00810811        0.26914602        0.26913842        0.53828444
         -8.94744745        0.26886525        0.26885574        0.53772099
         -8.88678679        0.28632072        0.28631341        0.57263413
         -8.82612613        0.29771253        0.29770998        0.59542251
         -8.76546547        0.28716470        0.28716709        0.57433178
         -8.70480480        0.26719551        0.26720296        0.53439848
         -8.64414414        0.25646314        0.25647625        0.51293939
         -8.58348348        0.24825161        0.24827140        0.49652301
         -8.52282282        0.23073868        0.23076834        0.46150702
         -8.46216216        0.22750666        0.22758236        0.45508902
         -8.40150150        0.31416280        0.31435671        0.62851951
         -8.34084084        0.52055149        0.52077059        1.04132208
         -8.28018018        0.61341268        0.61336909        1.22678176
         -8.21951952        0.42886590        0.42861164        0.85747754
         -8.15885886        0.22248982        0.22227600        0.44476582
         -8.09819820        0.17198641        0.17176147        0.34374788
         -8.03753754        0.22257423        0.22209455        0.44466878
         -7.97687688        0.31218954        0.31127782        0.62346737
         -7.91621622        0.40778450        0.40639144        0.81417595
         -7.85555556        0.55270726        0.55120907        1.10391633
         -7.79489489        0.70497001        0.70481187        1.40978188
         -7.73423423        0.75852328        0.76016512        1.51868840
         -7.67357357        0.86948721        0.87136165        1.74084886
         -7.61291291        1.19034161        1.19143669        2.38177830
         -7.55225225        1.60419060        1.60452372        3.20871432
         -7.49159159        2.01557403        2.01490311        4.03047714
         -7.43093093        2.42469970        2.42248404        4.84718375
         -7.37027027        2.66479779        2.66174241        5.32654020
         -7.30960961        2.49980511        2.49806481        4.99786992
         -7.24894895        1.98229546        1.98333143        3.96562689
         -7.18828829        1.29014409        1.29306555        2.58320965
         -7.12762763        0.80312779        0.80535171        1.60847949
         -7.06696697        0.87651512        0.87698359        1.75349872
         -7.00630631        1.34293124        1.34277471        2.68570595
         -6.94564565        1.80593816        1.80628826        3.61222642
         -6.88498498        1.82243853        1.82273066        3.64516920
         -6.82432432        1.38151949        1.38130620        2.76282569
         -6.76366366        1.07882561        1.07811262        2.15693823
         -6.70300300        1.16740360        1.16611497        2.33351857
         -6.64234234        1.35010611        1.34926701        2.69937312
         -6.58168168        1.42873635        1.42901386        2.85775021
         -6.52102102        1.50166706        1.50251172        3.00417878
         -6.46036036        1.58957023        1.59031293        3.17988316
         -6.39969970        1.65223114        1.65224506        3.30447620
         -6.33903904        1.75132768        1.75051229        3.50183997
         -6.27837838        1.85623922        1.85525062        3.71148984
         -6.21771772        1.72669698        1.72667949        3.45337647
         -6.15705706        1.34973169        1.35049920        2.70023089