#            ENERGY              s1              s2              total
        -32.14698445        0.00000298        0.00000291        0.00000588
        -32.07446495        0.00013648        0.00013405        0.00027054
        -32.00194544        0.00218563        0.00215909        0.00434472
        -31.92942594        0.01223640        0.01215733        0.02439373
        -31.85690643        0.02417203        0.02415062        0.04832264
        -31.78438693        0.01895188        0.01900988        0.03796176
        -31.71186743        0.01289020        0.01289031        0.02578051
        -31.63934792        0.01581653        0.01569279        0.03150931
        -31.56682842        0.03338861        0.03280414        0.06619276
        -31.49430891        0.07337546        0.07270292        0.14607837
        -31.42178941        0.11141525        0.11150534        0.22292059
        -31.34926991        0.12227425        0.12255993        0.24483418
        -31.27675040        0.10842731        0.10852506        0.21695237
        -31.20423090        0.10137647        0.10109615        0.20247262
        -31.13171139        0.09689927        0.09681354        0.19371281
        -31.05919189        0.08233623        0.08289636        0.16523259
        -30.98667239        0.06117137        0.06159603        0.12276740
        -30.91415288        0.04589210        0.04608988        0.09198198
        -30.84163338        0.02929917        0.02939448        0.05869365
        -30.76911387        0.01884488        0.01886085        0.03770573
        -30.69659437        0.01479720        0.01480631        0.02960352
        -30.62407487        0.00789176        0.00792399        0.01581575
        -30.55155536        0.00181614        0.00183190        0.00364804
        -30.47903586        0.00015482        0.00015690        0.00031172
        -30.40651635        0.00000987        0.00000982        0.00001970
        -30.33399685        0.00019508        0.00019115        0.00038623
        -30.26147735        0.00256006        0.00252578        0.00508585
        -30.18895784        0.01174023        0.01166270        0.02340293
        -30.11643834        0.01894981        0.01895157        0.03790137
        -30.04391883        0.01225853        0.01231361        0.02457213
        -29.97139933        0.00875059        0.00874793        0.01749851
        -29.89887983        0.00933815        0.00935057        0.01868872
        -29.82636032        0.00751557        0.00747370        0.01498927
        -29.75384082        0.01865685        0.01846026        0.03711710
        -29.68132131        0.05071379        0.05056336        0.10127715
        -29.60880181        0.08977569        0.08971518        0.17949088
        -29.53628231        0.10773111        0.10757943        0.21531054
        -29.46376280        0.10601715        0.10600881        0.21202595
        -29.39124330        0.10059489        0.10083007        0.20142497
        -29.31872380        0.08589689        0.08603791        0.17193480
        -29.24620429        0.05849741        0.05867710        0.11717450
        -29.17368479        0.04334924        0.04349124        0.08684048
        -29.10116528        0.04558497        0.04564573        0.09123070
        -29.02864578        0.03209325        0.03218319        0.06427643
        -28.95612628        0.01468333        0.01472304        0.02940636
        -28.88360677        0.00888201        0.00890423        0.01778624
        -28.81108727        0.00395083        0.00397447        0.00792530
        -28.73856776        0.00073944        0.00074690        0.00148634
        -28.66604826        0.00005221        0.00005295        0.00010516
        -28.59352876        0.00000130        0.00000133        0.00000263
        -28.52100925        0.00000000        0.00000000        0.00000000
        -28.44848975        0.00000000        0.00000000        0.00000000
        -28.37597024        0.00000000        0.00000000        0.00000000
        -28.30345074        0.00000000        0.00000000        0.00000000
        -28.23093124        0.00000000        0.00000000        0.00000000
        -28.15841173        0.00000000        0.00000000        0.00000000
        -28.08589223        0.00000000        0.00000000        0.00000000
        -28.01337272        0.00000000        0.00000000        0.00000000
        -27.94085322        0.00000000        0.00000000        0.00000000
        -27.86833372        0.00000000        0.00000000        0.00000000
        -27.79581421        0.00000000        0.00000000        0.00000000
        -27.72329471        0.00000000        0.00000000        0.00000000
        -27.65077520        0.00000000        0.00000000        0.00000000
        -27.57825570        0.00000000        0.00000000        0.00000000
        -27.50573620        0.00000000        0.00000000        0.00000000
        -27.43321669        0.00000000        0.00000000        0.00000000
        -27.36069719        0.00000000        0.00000000        0.00000000
        -27.28817768        0.00000000        0.00000000        0.00000000
        -27.21565818        0.00000000        0.00000000        0.00000000
        -27.14313868        0.00000000        0.00000000        0.00000000
        -27.07061917        0.00000000        0.00000000        0.00000000
        -26.99809967        0.00000000        0.00000000        0.00000000
        -26.92558016        0.00000000        0.00000000        0.00000000
        -26.85306066        0.00000000        0.00000000        0.00000000
        -26.78054116        0.00000000        0.00000000        0.00000000
        -26.70802165        0.00000000        0.00000000        0.00000000
        -26.63550215        0.00000000        0.00000000        0.00000000
        -26.56298264        0.00000000        0.00000000        0.00000000
        -26.49046314        0.00000000        0.00000000        0.00000000
        -26.41794364        0.00000000        0.00000000        0.00000000
        -26.34542413        0.00000000        0.00000000        0.00000000
        -26.27290463        0.00000000        0.00000000        0.00000000
        -26.20038513        0.00000000        0.00000000        0.00000000
        -26.12786562        0.00000000        0.00000000        0.00000000
        -26.05534612        0.00000000        0.00000000        0.00000000
        -25.98282661        0.00000000        0.00000000        0.00000000
        -25.91030711        0.00000000        0.00000000        0.00000000
        -25.83778761        0.00000000        0.00000000        0.00000000
        -25.76526810        0.00000000        0.00000000        0.00000000
        -25.69274860        0.00000000        0.00000000        0.00000000
        -25.62022909        0.00000000        0.00000000        0.00000000
        -25.54770959        0.00000000        0.00000000        0.00000000
        -25.47519009        0.00000000        0.00000000        0.00000000
        -25.40267058        0.00000000        0.00000000        0.00000000
        -25.33015108        0.00000000        0.00000000        0.00000000
        -25.25763157        0.00000000        0.00000000        0.00000000
        -25.18511207        0.00000000        0.00000000        0.00000000
        -25.11259257        0.00000000        0.00000000        0.00000000
        -25.04007306        0.00000000        0.00000000        0.00000000
        -24.96755356        0.00000000        0.00000000        0.00000000
        -24.89503405        0.00000000        0.00000000        0.00000000
        -24.82251455        0.00000000        0.00000000        0.00000000
        -24.74999505        0.00000000        0.00000000        0.00000000
        -24.67747554        0.00000000        0.00000000        0.00000000
        -24.60495604        0.00000000        0.00000000        0.00000000
        -24.53243653        0.00000000        0.00000000        0.00000000
        -24.45991703        0.00000000        0.00000000        0.00000000
        -24.38739753        0.00000000        0.00000000        0.00000000
        -24.31487802        0.00000000        0.00000000        0.00000000
        -24.24235852        0.00000000        0.00000000        0.00000000
        -24.16983901        0.00000000        0.00000000        0.00000000
        -24.09731951        0.00000000        0.00000000        0.00000000
        -24.02480001        0.00000000        0.00000000        0.00000000
        -23.95228050        0.00000000        0.00000000        0.00000000
        -23.87976100        0.00000000        0.00000000        0.00000000
        -23.80724149        0.00000000        0.00000000        0.00000000
        -23.73472199        0.00000000        0.00000000        0.00000000
        -23.66220249        0.00000000        0.00000000        0.00000000
        -23.58968298        0.00000000        0.00000000        0.00000000
        -23.51716348        0.00000000        0.00000000        0.00000000
        -23.44464397        0.00000000        0.00000000        0.00000000
        -23.37212447        0.00000000        0.00000000        0.00000000
        -23.29960497        0.00000000        0.00000000        0.00000000
        -23.22708546        0.00000000        0.00000000        0.00000000
        -23.15456596        0.00000000        0.00000000        0.00000000
        -23.08204646        0.00000000        0.00000000        0.00000000
        -23.00952695        0.00000000        0.00000000        0.00000000
        -22.93700745        0.00000000        0.00000000        0.00000000
        -22.86448794        0.00000000        0.00000000        0.00000000
        -22.79196844        0.00000000        0.00000000        0.00000000
        -22.71944894        0.00000000        0.00000000        0.00000000
        -22.64692943        0.00000000        0.00000000        0.00000000
        -22.57440993        0.00000000        0.00000000        0.00000000
        -22.50189042        0.00000000        0.00000000        0.00000000
        -22.42937092        0.00000000        0.00000000        0.00000000
        -22.35685142        0.00000000        0.00000000        0.00000000
        -22.28433191        0.00000000        0.00000000        0.00000000
        -22.21181241        0.00000000        0.00000000        0.00000000
        -22.13929290        0.00000000        0.00000000        0.00000000
        -22.06677340        0.00000000        0.00000000        0.00000000
        -21.99425390        0.00000000        0.00000000        0.00000000
        -21.92173439        0.00000000        0.00000000        0.00000000
        -21.84921489        0.00000000        0.00000000        0.00000000
        -21.77669538        0.00000000        0.00000000        0.00000000
        -21.70417588        0.00000000        0.00000000        0.00000000
        -21.63165638        0.00000000        0.00000000        0.00000000
        -21.55913687        0.00000000        0.00000000        0.00000000
        -21.48661737        0.00000000        0.00000000        0.00000000
        -21.41409786        0.00000000        0.00000000        0.00000000
        -21.34157836        0.00000000        0.00000000        0.00000000
        -21.26905886        0.00000000        0.00000000        0.00000000
        -21.19653935        0.00000000        0.00000000        0.00000000
        -21.12401985        0.00000000        0.00000000        0.00000000
        -21.05150034        0.00000000        0.00000000        0.00000000
        -20.97898084        0.00000000        0.00000000        0.00000000
        -20.90646134        0.00000000        0.00000000        0.00000000
        -20.83394183        0.00000000        0.00000000        0.00000000
        -20.76142233        0.00000000        0.00000000        0.00000000
        -20.68890282        0.00000058        0.00000058        0.00000116
        -20.61638332        0.00002071        0.00002059        0.00004130
        -20.54386382        0.00026157        0.00026039        0.00052196
        -20.47134431        0.00123722        0.00123326        0.00247048
        -20.39882481        0.00257758        0.00257039        0.00514798
        -20.32630530        0.00334257        0.00333010        0.00667267
        -20.25378580        0.00365320        0.00364257        0.00729576
        -20.18126630        0.00369890        0.00369915        0.00739806
        -20.10874679        0.00308041        0.00309204        0.00617245
        -20.03622729        0.00184987        0.00186797        0.00371784
        -19.96370779        0.00209699        0.00209785        0.00419484
        -19.89118828        0.00363668        0.00361364        0.00725032
        -19.81866878        0.00470059        0.00466924        0.00936983
        -19.74614927        0.00582527        0.00579411        0.01161937
        -19.67362977        0.00656374        0.00654061        0.01310435
        -19.60111027        0.00592364        0.00590921        0.01183285
        -19.52859076        0.00522695        0.00521148        0.01043842
        -19.45607126        0.00598066        0.00596286        0.01194352
        -19.38355175        0.00719816        0.00718728        0.01438545
        -19.31103225        0.00652180        0.00651498        0.01303679
        -19.23851275        0.00592498        0.00591143        0.01183641
        -19.16599324        0.00690468        0.00689435        0.01379902
        -19.09347374        0.00781922        0.00781601        0.01563523
        -19.02095423        0.00801328        0.00800786        0.01602114
        -18.94843473        0.00792428        0.00791301        0.01583729
        -18.87591523        0.00842544        0.00841485        0.01684030
        -18.80339572        0.00832932        0.00832209        0.01665141
        -18.73087622        0.00805824        0.00804720        0.01610544
        -18.65835671        0.00878812        0.00877250        0.01756062
        -18.58583721        0.00919189        0.00917507        0.01836696
        -18.51331771        0.00875983        0.00874634        0.01750617
        -18.44079820        0.00878670        0.00877234        0.01755904
        -18.36827870        0.01014822        0.01012797        0.02027619
        -18.29575919        0.01189733        0.01187395        0.02377128
        -18.22323969        0.01193891        0.01192301        0.02386193
        -18.15072019        0.01124590        0.01121817        0.02246407
        -18.07820068        0.01260682        0.01257588        0.02518270
        -18.00568118        0.01195599        0.01196654        0.02392253
        -17.93316167        0.00779938        0.00783699        0.01563637
        -17.86064217        0.00329600        0.00332493        0.00662093
        -17.78812267        0.00115022        0.00115376        0.00230398
        -17.71560316        0.00226808        0.00225550        0.00452358
        -17.64308366        0.00356132        0.00356093        0.00712225
        -17.57056415        0.00199982        0.00201174        0.00401156
        -17.49804465        0.00039244        0.00039718        0.00078962
        -17.42552515        0.00002690        0.00002739        0.00005429
        -17.35300564        0.00000064        0.00000066        0.00000130
        -17.28048614        0.00000082        0.00000081        0.00000163
        -17.20796663        0.00002834        0.00002819        0.00005653
        -17.13544713        0.00035322        0.00035160        0.00070482
        -17.06292763        0.00175381        0.00174677        0.00350057
        -16.99040812        0.00436882        0.00434916        0.00871798
        -16.91788862        0.00996923        0.00991874        0.01988797
        -16.84536912        0.02461989        0.02453703        0.04915692
        -16.77284961        0.03814576        0.03808508        0.07623084
        -16.70033011        0.03220321        0.03218831        0.06439152
        -16.62781060        0.02149383        0.02147136        0.04296519
        -16.55529110        0.02112238        0.02107672        0.04219909
        -16.48277160        0.02511785        0.02508376        0.05020161
        -16.41025209        0.02600912        0.02599264        0.05200176
        -16.33773259        0.02470460        0.02468360        0.04938820
        -16.26521308        0.02306626        0.02302665        0.04609291
        -16.19269358        0.02261628        0.02255353        0.04516981
        -16.12017408        0.02412524        0.02406074        0.04818598
        -16.04765457        0.02483162        0.02477474        0.04960636
        -15.97513507        0.02570829        0.02563938        0.05134767
        -15.90261556        0.02708652        0.02699261        0.05407913
        -15.83009606        0.02985830        0.02973736        0.05959565
        -15.75757656        0.03648654        0.03634768        0.07283422
        -15.68505705        0.04555948        0.04542414        0.09098362
        -15.61253755        0.04758829        0.04749151        0.09507980
        -15.54001804        0.04494460        0.04484297        0.08978757
        -15.46749854        0.05030079        0.05011337        0.10041416
        -15.39497904        0.06443665        0.06413040        0.12856705
        -15.32245953        0.08156357        0.08119876        0.16276233
        -15.24994003        0.08932531        0.08900291        0.17832822
        -15.17742052        0.09057148        0.09029480        0.18086629
        -15.10490102        0.09841655        0.09805845        0.19647500
        -15.03238152        0.12227990        0.12176457        0.24404447
        -14.95986201        0.14474950        0.14431484        0.28906434
        -14.88734251        0.14654876        0.14625229        0.29280105
        -14.81482300        0.16256638        0.16229891        0.32486529
        -14.74230350        0.17657004        0.17664993        0.35321996
        -14.66978400        0.13765962        0.13799975        0.27565937
        -14.59726449        0.07658895        0.07680789        0.15339684
        -14.52474499        0.03646712        0.03657822        0.07304534
        -14.45222548        0.01305229        0.01313773        0.02619003
        -14.37970598        0.00226668        0.00229448        0.00456116
        -14.30718648        0.00015783        0.00016052        0.00031836
        -14.23466697        0.00022527        0.00021982        0.00044509
        -14.16214747        0.00338495        0.00332633        0.00671128
        -14.08962796        0.01810925        0.01793595        0.03604520
        -14.01710846        0.03472747        0.03464924        0.06937671
        -13.94458896        0.02952859        0.02956397        0.05909256
        -13.87206945        0.02561083        0.02554434        0.05115517
        -13.79954995        0.03093182        0.03078343        0.06171525
        -13.72703045        0.04985980        0.04945784        0.09931764
        -13.65451094        0.09492355        0.09429294        0.18921649
        -13.58199144        0.15269908        0.15206274        0.30476183
        -13.50947193        0.17569192        0.17510431        0.35079624
        -13.43695243        0.16952025        0.16906104        0.33858128
        -13.36443293        0.15658571        0.15639021        0.31297592
        -13.29191342        0.14282609        0.14269044        0.28551653
        -13.21939392        0.13526216        0.13509907        0.27036123
        -13.14687441        0.12498352        0.12476476        0.24974829
        -13.07435491        0.11620063        0.11587177        0.23207241
        -13.00183541        0.12305956        0.12256556        0.24562511
        -12.92931590        0.14902248        0.14838530        0.29740778
        -12.85679640        0.17570492        0.17515225        0.35085717
        -12.78427689        0.18327079        0.18300598        0.36627677
        -12.71175739        0.16544678        0.16541318        0.33085996
        -12.63923789        0.13196942        0.13194177        0.26391119
        -12.56671838        0.10803703        0.10789202        0.21592905
        -12.49419888        0.09987942        0.09968143        0.19956085
        -12.42167937        0.09285774        0.09272029        0.18557803
        -12.34915987        0.07808870        0.07805574        0.15614444
        -12.27664037        0.05207253        0.05208458        0.10415712
        -12.20412086        0.03802165        0.03793164        0.07595330
        -12.13160136        0.04853940        0.04837302        0.09691241
        -12.05908185        0.05022989        0.05006543        0.10029532
        -11.98656235        0.05922081        0.05869967        0.11792048
        -11.91404285        0.11150547        0.11058489        0.22209036
        -11.84152334        0.14840373        0.14747282        0.29587655
        -11.76900384        0.14236279        0.14151289        0.28387568
        -11.69648433        0.14126803        0.14046889        0.28173692
        -11.62396483        0.15544455        0.15444423        0.30988878
        -11.55144533        0.17381449        0.17286334        0.34667783
        -11.47892582        0.17664785        0.17587772        0.35252557
        -11.40640632        0.16908031        0.16781640        0.33689672
        -11.33388681        0.16892712        0.16746819        0.33639532
        -11.26136731        0.16686430        0.16627043        0.33313473
        -11.18884781        0.15514147        0.15496488        0.31010635
        -11.11632830        0.14045771        0.14032057        0.28077828
        -11.04380880        0.13052128        0.13038295        0.26090423
        -10.97128929        0.11424012        0.11398094        0.22822105
        -10.89876979        0.08875278        0.08829637        0.17704915
        -10.82625029        0.07652028        0.07584310        0.15236338
        -10.75373078        0.08214941        0.08125618        0.16340558
        -10.68121128        0.10679907        0.10527238        0.21207145
        -10.60869178        0.15037003        0.14753554        0.29790557
        -10.53617227        0.23121391        0.22707084        0.45828474
        -10.46365277        0.33441871        0.33088905        0.66530776
        -10.39113326        0.36796819        0.36705583        0.73502402
        -10.31861376        0.28084418        0.28147142        0.56231559
        -10.24609426        0.19835879        0.19739229        0.39575108
        -10.17357475        0.20489742        0.20188281        0.40678023
        -10.10105525        0.24590457        0.24254802        0.48845260
        -10.02853574        0.28229081        0.27887932        0.56117013
         -9.95601624        0.31464926        0.31009504        0.62474430
         -9.88349674        0.31976426        0.31509626        0.63486052
         -9.81097723        0.29201211        0.28821411        0.58022623
         -9.73845773        0.31175384        0.30788400        0.61963784
         -9.66593822        0.37967305        0.37598840        0.75566144
         -9.59341872        0.41370522        0.41064223        0.82434745
         -9.52089922        0.40847729        0.40571590        0.81419319
         -9.44837971        0.40452060        0.40152805        0.80604865
         -9.37586021        0.42829124        0.42462282        0.85291406
         -9.30334070        0.45249171        0.44778303        0.90027474
         -9.23082120        0.50145530        0.49528231        0.99673761
         -9.15830170        0.54319898        0.53627110        1.07947008
         -9.08578219        0.54155161        0.53531400        1.07686561
         -9.01326269        0.53771726        0.53303011        1.07074737
         -8.94074318        0.54177621        0.53681398        1.07859019
         -8.86822368        0.56578897        0.55881485        1.12460381
         -8.79570418        0.58355150        0.57529826        1.15884976
         -8.72318467        0.55378313        0.54533497        1.09911810
         -8.65066517        0.49452625        0.48571395        0.98024021
         -8.57814566        0.46638949        0.45661704        0.92300654
         -8.50562616        0.44345780        0.43308000        0.87653781
         -8.43310666        0.42472526        0.41146600        0.83619126
         -8.36058715        0.49832191        0.47498978        0.97331169
         -8.28806765        0.71986357        0.66543338        1.38529695
         -8.21554814        1.28496636        1.15825466        2.44322102
         -8.14302864        2.29685675        2.16382696        4.46068371
         -8.07050914        2.55984697        2.59992915        5.15977612
         -7.99798963        1.66989529        1.68553945        3.35543474
         -7.92547013        1.57891511        1.27598446        2.85489957
         -7.85295062        2.29655588        1.83853124        4.13508712
         -7.78043112        2.43286049        2.31333793        4.74619842
         -7.70791162        1.85931916        2.09189543        3.95121459
         -7.63539211        1.48344051        1.73355107        3.21699158
         -7.56287261        1.42463505        1.62389098        3.04852603
         -7.49035311        1.78960109        1.85477157        3.64437266
         -7.41783360        3.21414973        2.98846355        6.20261328
         -7.34531410        5.89015461        5.31331113       11.20346574
         -7.27279459        8.22430132        7.83561727       16.05991859
         -7.20027509        7.29019428        7.54358276       14.83377704
         -7.12775559        4.45742546        5.02378189        9.48120735
         -7.05523608        2.50300392        2.80471782        5.30772174
         -6.98271658        1.78192008        1.83088536        3.61280544
         -6.91019707        1.92624475        1.95313566        3.87938041
         -6.83767757        2.66970963        2.54437865        5.21408828
         -6.76515807        3.51197472        3.47691307        6.98888780
         -6.69263856        3.29629748        3.35733493        6.65363241
         -6.62011906        3.01536732        2.89401279        5.90938011
         -6.54759955        2.95499416        3.00005640        5.95505056
         -6.47508005        2.07217438        2.27861674        4.35079111
         -6.40256055        1.10840620        1.24399941        2.35240561
         -6.33004104        0.74305778        0.76154065        1.50459844
         -6.25752154        0.80392258        0.73784763        1.54177021
         -6.18500203        0.85074628        0.82195289        1.67269918
         -6.11248253        0.68423878        0.73797280        1.42221158
         -6.03996303        0.59158019        0.61877975        1.21035994
         -5.96744352        0.76621011        0.70993598        1.47614609
         -5.89492402        1.06833095        0.98839871        2.05672966
         -5.82240451        1.16378742        1.14300191        2.30678932
         -5.74988501        1.18794809        1.17412187        2.36206995
         -5.67736551        1.42557341        1.35516321        2.78073662
         -5.60484600        1.84580772        1.81201173        3.65781945
         -5.53232650        1.94015250        1.96577705        3.90592955
         -5.45980699        1.58980754        1.61819767        3.20800521
         -5.38728749        1.01352698        1.06702724        2.08055422
         -5.31476799        0.53430428        0.61160162        1.14590589
         -5.24224848        0.44539985        0.49175624        0.93715609
         -5.16972898        0.47317153        0.50334844        0.97651997
         -5.09720947        0.34804011        0.37075014        0.71879024
         -5.02468997        0.23154813        0.24139353        0.47294167
         -4.95217047        0.16252945        0.17685142        0.33938086
         -4.87965096        0.10980011        0.13189706        0.24169717
         -4.80713146        0.33751206        0.30376454        0.64127661
         -4.73461195        1.88174029        1.57422666        3.45596695
         -4.66209245        5.20471946        4.25237509        9.45709455
         -4.58957295        7.10240149        6.24151540       13.34391689
         -4.51705344        4.74805201        5.52601806       10.27407007
         -4.44453394        1.43958695        2.58965826        4.02924522
         -4.37201444        0.18155398        0.53472283        0.71627681
         -4.29949493        0.00886533        0.04348867        0.05235400
         -4.22697543        0.00015176        0.00130964        0.00146140
         -4.15445592        0.00000000        0.00000000        0.00000000
         -4.08193642        0.00000000        0.00000000        0.00000000
         -4.00941692        0.00000000        0.00000000        0.00000000
         -3.93689741        0.00000000        0.00000000        0.00000000
         -3.86437791        0.00162821        0.00104576        0.00267397
         -3.79185840        0.05468711        0.03927974        0.09396686
         -3.71933890        0.66966560        0.53670981        1.20637541
         -3.64681940        3.04968423        2.71899257        5.76867679
         -3.57429989        5.26150756        5.20073868       10.46224623
         -3.50178039        3.49911341        3.79958603        7.29869944
         -3.42926088        1.26447439        1.20812681        2.47260121
         -3.35674138        1.76182916        1.15793910        2.91976825
         -3.28422188        2.48619125        2.41618406        4.90237531