#            ENERGY              s1              s2              total
        -32.14698445        0.00000689        0.00000672        0.00001361
        -32.07446495        0.00031565        0.00030995        0.00062561
        -32.00194544        0.00505478        0.00499214        0.01004692
        -31.92942594        0.02829619        0.02810630        0.05640250
        -31.85690643        0.05581524        0.05575271        0.11156795
        -31.78438693        0.04300409        0.04313239        0.08613648
        -31.71186743        0.02687179        0.02687124        0.05374303
        -31.63934792        0.03028933        0.03003453        0.06032386
        -31.56682842        0.06088460        0.05970147        0.12058607
        -31.49430891        0.13374465        0.13227334        0.26601799
        -31.42178941        0.19688967        0.19684352        0.39373319
        -31.34926991        0.20463622        0.20506752        0.40970374
        -31.27675040        0.17439641        0.17449183        0.34888824
        -31.20423090        0.16094174        0.16036763        0.32130937
        -31.13171139        0.15325457        0.15293537        0.30618994
        -31.05919189        0.12861535        0.12938753        0.25800288
        -30.98667239        0.09281697        0.09344442        0.18626139
        -30.91415288        0.06658832        0.06688138        0.13346970
        -30.84163338        0.04017815        0.04031768        0.08049583
        -30.76911387        0.02316622        0.02318937        0.04635559
        -30.69659437        0.01706330        0.01706833        0.03413163
        -30.62407487        0.00906378        0.00909683        0.01816061
        -30.55155536        0.00209269        0.00210990        0.00420259
        -30.47903586        0.00017873        0.00018105        0.00035978
        -30.40651635        0.00001577        0.00001559        0.00003137
        -30.33399685        0.00038937        0.00038146        0.00077083
        -30.26147735        0.00510979        0.00504039        0.01015018
        -30.18895784        0.02343612        0.02327683        0.04671295
        -30.11643834        0.03791961        0.03791385        0.07583346
        -30.04391883        0.02552453        0.02561464        0.05113917
        -29.97139933        0.02151076        0.02147109        0.04298185
        -29.89887983        0.02412319        0.02412943        0.04825262
        -29.82636032        0.01870738        0.01851894        0.03722632
        -29.75384082        0.04404154        0.04327518        0.08731672
        -29.68132131        0.11275326        0.11229620        0.22504946
        -29.60880181        0.18514439        0.18528931        0.37043370
        -29.53628231        0.21395589        0.21371503        0.42767092
        -29.46376280        0.20088693        0.20073442        0.40162135
        -29.39124330        0.18073343        0.18093581        0.36166925
        -29.31872380        0.14979469        0.14997166        0.29976635
        -29.24620429        0.09708973        0.09749971        0.19458943
        -29.17368479        0.06515129        0.06543603        0.13058732
        -29.10116528        0.06534695        0.06543012        0.13077706
        -29.02864578        0.04581750        0.04593673        0.09175423
        -28.95612628        0.01973301        0.01978922        0.03952223
        -28.88360677        0.01063803        0.01066435        0.02130238
        -28.81108727        0.00449676        0.00452307        0.00901983
        -28.73856776        0.00082123        0.00082942        0.00165065
        -28.66604826        0.00005721        0.00005801        0.00011522
        -28.59352876        0.00000141        0.00000143        0.00000284
        -28.52100925        0.00000000        0.00000000        0.00000000
        -28.44848975        0.00000000        0.00000000        0.00000000
        -28.37597024        0.00000000        0.00000000        0.00000000
        -28.30345074        0.00000000        0.00000000        0.00000000
        -28.23093124        0.00000000        0.00000000        0.00000000
        -28.15841173        0.00000000        0.00000000        0.00000000
        -28.08589223        0.00000000        0.00000000        0.00000000
        -28.01337272        0.00000000        0.00000000        0.00000000
        -27.94085322        0.00000000        0.00000000        0.00000000
        -27.86833372        0.00000000        0.00000000        0.00000000
        -27.79581421        0.00000000        0.00000000        0.00000000
        -27.72329471        0.00000000        0.00000000        0.00000000
        -27.65077520        0.00000000        0.00000000        0.00000000
        -27.57825570        0.00000000        0.00000000        0.00000000
        -27.50573620        0.00000000        0.00000000        0.00000000
        -27.43321669        0.00000000        0.00000000        0.00000000
        -27.36069719        0.00000000        0.00000000        0.00000000
        -27.28817768        0.00000000        0.00000000        0.00000000
        -27.21565818        0.00000000        0.00000000        0.00000000
        -27.14313868        0.00000000        0.00000000        0.00000000
        -27.07061917        0.00000000        0.00000000        0.00000000
        -26.99809967        0.00000000        0.00000000        0.00000000
        -26.92558016        0.00000000        0.00000000        0.00000000
        -26.85306066        0.00000000        0.00000000        0.00000000
        -26.78054116        0.00000000        0.00000000        0.00000000
        -26.70802165        0.00000000        0.00000000        0.00000000
        -26.63550215        0.00000000        0.00000000        0.00000000
        -26.56298264        0.00000000        0.00000000        0.00000000
        -26.49046314        0.00000000        0.00000000        0.00000000
        -26.41794364        0.00000000        0.00000000        0.00000000
        -26.34542413        0.00000000        0.00000000        0.00000000
        -26.27290463        0.00000000        0.00000000        0.00000000
        -26.20038513        0.00000000        0.00000000        0.00000000
        -26.12786562        0.00000000        0.00000000        0.00000000
        -26.05534612        0.00000000        0.00000000        0.00000000
        -25.98282661        0.00000000        0.00000000        0.00000000
        -25.91030711        0.00000000        0.00000000        0.00000000
        -25.83778761        0.00000000        0.00000000        0.00000000
        -25.76526810        0.00000000        0.00000000        0.00000000
        -25.69274860        0.00000000        0.00000000        0.00000000
        -25.62022909        0.00000000        0.00000000        0.00000000
        -25.54770959        0.00000000        0.00000000        0.00000000
        -25.47519009        0.00000000        0.00000000        0.00000000
        -25.40267058        0.00000000        0.00000000        0.00000000
        -25.33015108        0.00000000        0.00000000        0.00000000
        -25.25763157        0.00000000        0.00000000        0.00000000
        -25.18511207        0.00000000        0.00000000        0.00000000
        -25.11259257        0.00000000        0.00000000        0.00000000
        -25.04007306        0.00000000        0.00000000        0.00000000
        -24.96755356        0.00000000        0.00000000        0.00000000
        -24.89503405        0.00000000        0.00000000        0.00000000
        -24.82251455        0.00000000        0.00000000        0.00000000
        -24.74999505        0.00000000        0.00000000        0.00000000
        -24.67747554        0.00000000        0.00000000        0.00000000
        -24.60495604        0.00000000        0.00000000        0.00000000
        -24.53243653        0.00000000        0.00000000        0.00000000
        -24.45991703        0.00000000        0.00000000        0.00000000
        -24.38739753        0.00000000        0.00000000        0.00000000
        -24.31487802        0.00000000        0.00000000        0.00000000
        -24.24235852        0.00000000        0.00000000        0.00000000
        -24.16983901        0.00000000        0.00000000        0.00000000
        -24.09731951        0.00000000        0.00000000        0.00000000
        -24.02480001        0.00000000        0.00000000        0.00000000
        -23.95228050        0.00000000        0.00000000        0.00000000
        -23.87976100        0.00000000        0.00000000        0.00000000
        -23.80724149        0.00000000        0.00000000        0.00000000
        -23.73472199        0.00000000        0.00000000        0.00000000
        -23.66220249        0.00000000        0.00000000        0.00000000
        -23.58968298        0.00000000        0.00000000        0.00000000
        -23.51716348        0.00000000        0.00000000        0.00000000
        -23.44464397        0.00000000        0.00000000        0.00000000
        -23.37212447        0.00000000        0.00000000        0.00000000
        -23.29960497        0.00000000        0.00000000        0.00000000
        -23.22708546        0.00000000        0.00000000        0.00000000
        -23.15456596        0.00000000        0.00000000        0.00000000
        -23.08204646        0.00000000        0.00000000        0.00000000
        -23.00952695        0.00000000        0.00000000        0.00000000
        -22.93700745        0.00000000        0.00000000        0.00000000
        -22.86448794        0.00000000        0.00000000        0.00000000
        -22.79196844        0.00000000        0.00000000        0.00000000
        -22.71944894        0.00000000        0.00000000        0.00000000
        -22.64692943        0.00000000        0.00000000        0.00000000
        -22.57440993        0.00000000        0.00000000        0.00000000
        -22.50189042        0.00000000        0.00000000        0.00000000
        -22.42937092        0.00000000        0.00000000        0.00000000
        -22.35685142        0.00000000        0.00000000        0.00000000
        -22.28433191        0.00000000        0.00000000        0.00000000
        -22.21181241        0.00000000        0.00000000        0.00000000
        -22.13929290        0.00000000        0.00000000        0.00000000
        -22.06677340        0.00000000        0.00000000        0.00000000
        -21.99425390        0.00000000        0.00000000        0.00000000
        -21.92173439        0.00000000        0.00000000        0.00000000
        -21.84921489        0.00000000        0.00000000        0.00000000
        -21.77669538        0.00000000        0.00000000        0.00000000
        -21.70417588        0.00000000        0.00000000        0.00000000
        -21.63165638        0.00000000        0.00000000        0.00000000
        -21.55913687        0.00000000        0.00000000        0.00000000
        -21.48661737        0.00000000        0.00000000        0.00000000
        -21.41409786        0.00000000        0.00000000        0.00000000
        -21.34157836        0.00000000        0.00000000        0.00000000
        -21.26905886        0.00000000        0.00000000        0.00000000
        -21.19653935        0.00000000        0.00000000        0.00000000
        -21.12401985        0.00000000        0.00000000        0.00000000
        -21.05150034        0.00000000        0.00000000        0.00000000
        -20.97898084        0.00000000        0.00000000        0.00000000
        -20.90646134        0.00000000        0.00000000        0.00000000
        -20.83394183        0.00000000        0.00000000        0.00000000
        -20.76142233        0.00000000        0.00000000        0.00000000
        -20.68890282        0.00000141        0.00000139        0.00000280
        -20.61638332        0.00005015        0.00004981        0.00009996
        -20.54386382        0.00063827        0.00063490        0.00127317
        -20.47134431        0.00308557        0.00307321        0.00615878
        -20.39882481        0.00670413        0.00667980        0.01338393
        -20.32630530        0.00906859        0.00902277        0.01809136
        -20.25378580        0.01118049        0.01111404        0.02229453
        -20.18126630        0.01447689        0.01441035        0.02888724
        -20.10874679        0.01662152        0.01654056        0.03316208
        -20.03622729        0.01830084        0.01820238        0.03650321
        -19.96370779        0.01908036        0.01898867        0.03806904
        -19.89118828        0.01767112        0.01756932        0.03524043
        -19.81866878        0.01687864        0.01676564        0.03364427
        -19.74614927        0.01908805        0.01898134        0.03806939
        -19.67362977        0.02167267        0.02158831        0.04326098
        -19.60111027        0.02158889        0.02151432        0.04310321
        -19.52859076        0.01992104        0.01984499        0.03976603
        -19.45607126        0.02013504        0.02005674        0.04019177
        -19.38355175        0.02174679        0.02167765        0.04342444
        -19.31103225        0.02029783        0.02023989        0.04053772
        -19.23851275        0.01866157        0.01859599        0.03725756
        -19.16599324        0.01998232        0.01992153        0.03990385
        -19.09347374        0.02119719        0.02115459        0.04235177
        -19.02095423        0.02098577        0.02094223        0.04192800
        -18.94843473        0.02052334        0.02046735        0.04099068
        -18.87591523        0.02113758        0.02107935        0.04221693
        -18.80339572        0.02085168        0.02079696        0.04164864
        -18.73087622        0.02041612        0.02035038        0.04076650
        -18.65835671        0.02228824        0.02221398        0.04450222
        -18.58583721        0.02306164        0.02298771        0.04604935
        -18.51331771        0.02213324        0.02205410        0.04418734
        -18.44079820        0.02239532        0.02230698        0.04470230
        -18.36827870        0.02546973        0.02537015        0.05083987
        -18.29575919        0.02928700        0.02918233        0.05846934
        -18.22323969        0.02907863        0.02897187        0.05805050
        -18.15072019        0.03026489        0.03010284        0.06036773
        -18.07820068        0.03690491        0.03674675        0.07365166
        -18.00568118        0.03457842        0.03454478        0.06912320
        -17.93316167        0.02165641        0.02170438        0.04336079
        -17.86064217        0.00875431        0.00880695        0.01756126
        -17.78812267        0.00310001        0.00310131        0.00620132
        -17.71560316        0.00650150        0.00645640        0.01295790
        -17.64308366        0.01023901        0.01022451        0.02046352
        -17.57056415        0.00574996        0.00577668        0.01152664
        -17.49804465        0.00112836        0.00114049        0.00226885
        -17.42552515        0.00007734        0.00007865        0.00015600
        -17.35300564        0.00000185        0.00000189        0.00000375
        -17.28048614        0.00000267        0.00000266        0.00000533
        -17.20796663        0.00009161        0.00009110        0.00018272
        -17.13544713        0.00112558        0.00112020        0.00224579
        -17.06292763        0.00540943        0.00538604        0.01079546
        -16.99040812        0.01253031        0.01246379        0.02499410
        -16.91788862        0.02544410        0.02526540        0.05070950
        -16.84536912        0.05859075        0.05828811        0.11687885
        -16.77284961        0.08879370        0.08854909        0.17734280
        -16.70033011        0.07625428        0.07614766        0.15240193
        -16.62781060        0.05343998        0.05331982        0.10675980
        -16.55529110        0.05254428        0.05235017        0.10489446
        -16.48277160        0.06146642        0.06128721        0.12275363
        -16.41025209        0.06293207        0.06280868        0.12574075
        -16.33773259        0.05978266        0.05966271        0.11944537
        -16.26521308        0.05658405        0.05642816        0.11301221
        -16.19269358        0.05611006        0.05590034        0.11201040
        -16.12017408        0.06213898        0.06189726        0.12403624
        -16.04765457        0.06713971        0.06689969        0.13403940
        -15.97513507        0.06825581        0.06801200        0.13626781
        -15.90261556        0.06705527        0.06677621        0.13383148
        -15.83009606        0.06795036        0.06762611        0.13557646
        -15.75757656        0.07864892        0.07828752        0.15693643
        -15.68505705        0.09617600        0.09580622        0.19198223
        -15.61253755        0.10184575        0.10152385        0.20336960
        -15.54001804        0.10227508        0.10193552        0.20421059
        -15.46749854        0.11597916        0.11550799        0.23148715
        -15.39497904        0.13829191        0.13764375        0.27593566
        -15.32245953        0.16189350        0.16116158        0.32305509
        -15.24994003        0.16844721        0.16775605        0.33620326
        -15.17742052        0.16988599        0.16921438        0.33910037
        -15.10490102        0.18796940        0.18715137        0.37512078
        -15.03238152        0.23458198        0.23350598        0.46808796
        -14.95986201        0.27334202        0.27240373        0.54574575
        -14.88734251        0.27265218        0.27188743        0.54453962
        -14.81482300        0.30387313        0.30303737        0.60691051
        -14.74230350        0.33969469        0.33942136        0.67911605
        -14.66978400        0.27597946        0.27630511        0.55228457
        -14.59726449        0.16012369        0.16037517        0.32049886
        -14.52474499        0.07832295        0.07846184        0.15678479
        -14.45222548        0.02786049        0.02799820        0.05585870
        -14.37970598        0.00474822        0.00479661        0.00954483
        -14.30718648        0.00032889        0.00033350        0.00066238
        -14.23466697        0.00065293        0.00063684        0.00128976
        -14.16214747        0.00986103        0.00968892        0.01954995
        -14.08962796        0.05275824        0.05224619        0.10500443
        -14.01710846        0.10121823        0.10097608        0.20219431
        -13.94458896        0.08636808        0.08645813        0.17282621
        -13.87206945        0.07579642        0.07557840        0.15137482
        -13.79954995        0.09333720        0.09278244        0.18611965
        -13.72703045        0.14797647        0.14649780        0.29447427
        -13.65451094        0.25848158        0.25624557        0.51472715
        -13.58199144        0.40160826        0.39915499        0.80076324
        -13.50947193        0.49392503        0.49145384        0.98537887
        -13.43695243        0.49272022        0.49108622        0.98380644
        -13.36443293        0.42274234        0.42221630        0.84495864
        -13.29191342        0.35325488        0.35292459        0.70617947
        -13.21939392        0.31858323        0.31810704        0.63669027
        -13.14687441        0.29440078        0.29371554        0.58811632
        -13.07435491        0.27798060        0.27695277        0.55493337
        -13.00183541        0.28879890        0.28723076        0.57602966
        -12.92931590        0.33882050        0.33695890        0.67577940
        -12.85679640        0.38879220        0.38736563        0.77615783
        -12.78427689        0.40420256        0.40338469        0.80758724
        -12.71175739        0.37747939        0.37710108        0.75458047
        -12.63923789        0.30669021        0.30645245        0.61314266
        -12.56671838        0.24748508        0.24703791        0.49452299
        -12.49419888        0.22028838        0.21971368        0.44000206
        -12.42167937        0.19348785        0.19307348        0.38656134
        -12.34915987        0.15613335        0.15594787        0.31208121
        -12.27664037        0.10303655        0.10296102        0.20599757
        -12.20412086        0.07604886        0.07581062        0.15185947
        -12.13160136        0.10101755        0.10063707        0.20165462
        -12.05908185        0.11246593        0.11203238        0.22449831
        -11.98656235        0.14479202        0.14349414        0.28828616
        -11.91404285        0.26748633        0.26527478        0.53276112
        -11.84152334        0.35244109        0.35017808        0.70261917
        -11.76900384        0.34873361        0.34642861        0.69516222
        -11.69648433        0.35431467        0.35194251        0.70625718
        -11.62396483        0.38510427        0.38216134        0.76726561
        -11.55144533        0.42655454        0.42370801        0.85026255
        -11.47892582        0.44042155        0.43801609        0.87843764
        -11.40640632        0.43376038        0.43015089        0.86391126
        -11.33388681        0.42968357        0.42564166        0.85532523
        -11.26136731        0.41675488        0.41465196        0.83140684
        -11.18884781        0.38361282        0.38294262        0.76655544
        -11.11632830        0.33477502        0.33470511        0.66948013
        -11.04380880        0.29574461        0.29558579        0.59133041
        -10.97128929        0.25110229        0.25050665        0.50160894
        -10.89876979        0.19710701        0.19607825        0.39318526
        -10.82625029        0.18119701        0.17972654        0.36092355
        -10.75373078        0.20462628        0.20270588        0.40733216
        -10.68121128        0.27021390        0.26686440        0.53707830
        -10.60869178        0.38147407        0.37522920        0.75670327
        -10.53617227        0.56555524        0.55615495        1.12171019
        -10.46365277        0.78752178        0.77869563        1.56621741
        -10.39113326        0.86379474        0.86042644        1.72422119
        -10.31861376        0.68109774        0.68162198        1.36271972
        -10.24609426        0.49125799        0.48930812        0.98056611
        -10.17357475        0.47950941        0.47409233        0.95360173
        -10.10105525        0.55176486        0.54582184        1.09758671
        -10.02853574        0.63859548        0.63247232        1.27106780
         -9.95601624        0.71781071        0.70968312        1.42749383
         -9.88349674        0.72570525        0.71712257        1.44282782
         -9.81097723        0.67739031        0.66944716        1.34683747
         -9.73845773        0.72583183        0.71745624        1.44328807
         -9.66593822        0.87214438        0.86452519        1.73666957
         -9.59341872        0.99244629        0.98595038        1.97839668
         -9.52089922        1.04853606        1.04198497        2.09052103
         -9.44837971        1.09268984        1.08515020        2.17784003
         -9.37586021        1.14324090        1.13560702        2.27884792
         -9.30334070        1.11031847        1.10253893        2.21285740
         -9.23082120        1.12081513        1.11009100        2.23090613
         -9.15830170        1.22095099        1.20675164        2.42770263
         -9.08578219        1.31468713        1.30092835        2.61561548
         -9.01326269        1.39519779        1.38553342        2.78073121
         -8.94074318        1.46562488        1.45603203        2.92165691
         -8.86822368        1.57444136        1.56065263        3.13509399
         -8.79570418        1.72047290        1.70303878        3.42351169
         -8.72318467        1.73646328        1.71869657        3.45515984
         -8.65066517        1.55894034        1.54298897        3.10192931
         -8.57814566        1.39040646        1.37427520        2.76468166
         -8.50562616        1.24820783        1.23185644        2.48006427
         -8.43310666        1.07905427        1.06037211        2.13942639
         -8.36058715        1.06170497        1.02991160        2.09161657
         -8.28806765        1.29520343        1.22071047        2.51591390
         -8.21554814        2.00527619        1.82978769        3.83506387
         -8.14302864        3.35577544        3.16480324        6.52057868
         -8.07050914        3.73307921        3.77604255        7.50912176
         -7.99798963        2.64078018        2.64592083        5.28670101
         -7.92547013        2.79251086        2.32886727        5.12137813
         -7.85295062        4.11719833        3.39543401        7.51263234
         -7.78043112        4.57314461        4.31642561        8.88957022
         -7.70791162        3.98482549        4.24651939        8.23134488
         -7.63539211        3.76344698        4.06529750        7.82874448
         -7.56287261        4.55448421        4.73417614        9.28866034
         -7.49035311        8.95235162        8.53190857       17.48426019
         -7.41783360       20.93422538       18.73614316       39.67036854
         -7.34531410       41.00194718       36.04633472       77.04828190
         -7.27279459       57.78266278       54.01099706      111.79365984
         -7.20027509       52.88129986       54.43119311      107.31249298
         -7.12775559       37.30092780       41.69282119       78.99374900
         -7.05523608       27.29795032       29.14120275       56.43915307
         -6.98271658       23.99336441       24.03098068       48.02434510
         -6.91019707       26.74017983       27.51702426       54.25720409
         -6.83767757       32.06569040       31.49996108       63.56565148
         -6.76515807       39.46900526       38.73840953       78.20741479
         -6.69263856       45.88803924       44.11833197       90.00637122
         -6.62011906       58.49175733       54.66200387      113.15376120
         -6.54759955       64.33909702       65.22555854      129.56465556
         -6.47508005       52.64656050       56.30962658      108.95618709
         -6.40256055       50.31311635       50.97529858      101.28841493
         -6.33004104       62.13561034       59.81980744      121.95541778
         -6.25752154       73.58085407       71.57773049      145.15858456
         -6.18500203       75.83167929       76.16638656      151.99806585
         -6.11248253       69.55259306       70.38759674      139.94018980
         -6.03996303       68.89488488       67.90156197      136.79644685
         -5.96744352       74.93079936       74.23789246      149.16869182
         -5.89492402       70.87656050       71.65609529      142.53265579
         -5.82240451       59.37809979       60.35532088      119.73342067
         -5.74988501       53.84448129       54.90188438      108.74636567
         -5.67736551       49.04325507       49.04793669       98.09119176
         -5.60484600       54.38121451       52.51825279      106.89946730
         -5.53232650       71.29176683       68.78278439      140.07455122
         -5.45980699       80.92166069       79.16778529      160.08944598
         -5.38728749       72.72610041       72.60398915      145.33008957
         -5.31476799       65.54745611       65.46626496      131.01372107
         -5.24224848       91.94856214       89.37155948      181.32012162
         -5.16972898      115.23910792      115.62545515      230.86456308
         -5.09720947      100.58942514      103.83525476      204.42467990
         -5.02468997       80.93396219       81.82367832      162.75764051
         -4.95217047       64.40632480       65.64630660      130.05263139
         -4.87965096       42.88554740       48.26501146       91.15055886
         -4.80713146       22.36904208       26.46926251       48.83830459
         -4.73461195       12.72815557       12.97717646       25.70533203
         -4.66209245       17.92384246       15.47319417       33.39703663
         -4.58957295       21.81780976       19.61736293       41.43517269
         -4.51705344       13.63693729       15.65853441       29.29547170
         -4.44453394        3.94143329        6.87276653       10.81419982
         -4.37201444        0.48250270        1.37811481        1.86061751
         -4.29949493        0.02314632        0.11081300        0.13395932
         -4.22697543        0.00039000        0.00331805        0.00370805
         -4.15445592        0.00000000        0.00000000        0.00000000
         -4.08193642        0.00000000        0.00000000        0.00000000
         -4.00941692        0.00000000        0.00000000        0.00000000
         -3.93689741        0.00000000        0.00000000        0.00000000
         -3.86437791        0.00302991        0.00194729        0.00497720
         -3.79185840        0.10186085        0.07320621        0.17506706
         -3.71933890        1.24911453        1.00162351        2.25073805
         -3.64681940        5.69982306        5.08381788       10.78364094
         -3.57429989        9.85727602        9.74631889       19.60359490
         -3.50178039        6.57529779        7.13823421       13.71353199
         -3.42926088        2.42727162        2.29106264        4.71833426
         -3.35674138        3.51764435        2.29184419        5.80948854
         -3.28422188        4.97697318        4.80525449        9.78222768