#            ENERGY              s1              s2              total
        -30.30000000        0.00000025        0.00000025        0.00000050
        -30.23933934        0.00000882        0.00000882        0.00001765
        -30.17867868        0.00014848        0.00014848        0.00029695
        -30.11801802        0.00120110        0.00120110        0.00240221
        -30.05735736        0.00470890        0.00470890        0.00941780
        -29.99669670        0.00943160        0.00943160        0.01886320
        -29.93603604        0.01230393        0.01230393        0.02460787
        -29.87537538        0.01817987        0.01817987        0.03635974
        -29.81471471        0.03304970        0.03304970        0.06609940
        -29.75405405        0.05365161        0.05365161        0.10730321
        -29.69339339        0.07257772        0.07257772        0.14515544
        -29.63273273        0.08744100        0.08744100        0.17488200
        -29.57207207        0.09717384        0.09717384        0.19434768
        -29.51141141        0.09307349        0.09307349        0.18614698
        -29.45075075        0.07391715        0.07391715        0.14783429
        -29.39009009        0.05170250        0.05170250        0.10340500
        -29.32942943        0.03607099        0.03607099        0.07214198
        -29.26876877        0.02726506        0.02726506        0.05453011
        -29.20810811        0.01991701        0.01991701        0.03983402
        -29.14744745        0.01517355        0.01517355        0.03034710
        -29.08678679        0.01401460        0.01401460        0.02802920
        -29.02612613        0.01161969        0.01161969        0.02323938
        -28.96546547        0.00667425        0.00667425        0.01334850
        -28.90480480        0.00237661        0.00237661        0.00475321
        -28.84414414        0.00048719        0.00048719        0.00097438
        -28.78348348        0.00005444        0.00005444        0.00010888
        -28.72282282        0.00000317        0.00000317        0.00000635
        -28.66216216        0.00000010        0.00000010        0.00000019
        -28.60150150        0.00000000        0.00000000        0.00000000
        -28.54084084        0.00000000        0.00000000        0.00000000
        -28.48018018        0.00000000        0.00000000        0.00000000
        -28.41951952        0.00000000        0.00000000        0.00000000
        -28.35885886        0.00000000        0.00000000        0.00000000
        -28.29819820        0.00000000        0.00000000        0.00000000
        -28.23753754        0.00000000        0.00000000        0.00000000
        -28.17687688        0.00000000        0.00000000        0.00000000
        -28.11621622        0.00000000        0.00000000        0.00000000
        -28.05555556        0.00000000        0.00000000        0.00000000
        -27.99489489        0.00000000        0.00000000        0.00000000
        -27.93423423        0.00000000        0.00000000        0.00000000
        -27.87357357        0.00000000        0.00000000        0.00000000
        -27.81291291        0.00000000        0.00000000        0.00000000
        -27.75225225        0.00000000        0.00000000        0.00000000
        -27.69159159        0.00000000        0.00000000        0.00000000
        -27.63093093        0.00000000        0.00000000        0.00000000
        -27.57027027        0.00000000        0.00000000        0.00000000
        -27.50960961        0.00000000        0.00000000        0.00000000
        -27.44894895        0.00000000        0.00000000        0.00000000
        -27.38828829        0.00000000        0.00000000        0.00000000
        -27.32762763        0.00000000        0.00000000        0.00000000
        -27.26696697        0.00000000        0.00000000        0.00000000
        -27.20630631        0.00000000        0.00000000        0.00000000
        -27.14564565        0.00000000        0.00000000        0.00000000
        -27.08498498        0.00000000        0.00000000        0.00000000
        -27.02432432        0.00000000        0.00000000        0.00000000
        -26.96366366        0.00000000        0.00000000        0.00000000
        -26.90300300        0.00000000        0.00000000        0.00000000
        -26.84234234        0.00000000        0.00000000        0.00000000
        -26.78168168        0.00000000        0.00000000        0.00000000
        -26.72102102        0.00000000        0.00000000        0.00000000
        -26.66036036        0.00000000        0.00000000        0.00000000
        -26.59969970        0.00000000        0.00000000        0.00000000
        -26.53903904        0.00000000        0.00000000        0.00000000
        -26.47837838        0.00000000        0.00000000        0.00000000
        -26.41771772        0.00000000        0.00000000        0.00000000
        -26.35705706        0.00000000        0.00000000        0.00000000
        -26.29639640        0.00000000        0.00000000        0.00000000
        -26.23573574        0.00000000        0.00000000        0.00000000
        -26.17507508        0.00000000        0.00000000        0.00000000
        -26.11441441        0.00000000        0.00000000        0.00000000
        -26.05375375        0.00000000        0.00000000        0.00000000
        -25.99309309        0.00000000        0.00000000        0.00000000
        -25.93243243        0.00000000        0.00000000        0.00000000
        -25.87177177        0.00000000        0.00000000        0.00000000
        -25.81111111        0.00000000        0.00000000        0.00000000
        -25.75045045        0.00000000        0.00000000        0.00000000
        -25.68978979        0.00000000        0.00000000        0.00000000
        -25.62912913        0.00000000        0.00000000        0.00000000
        -25.56846847        0.00000000        0.00000000        0.00000000
        -25.50780781        0.00000000        0.00000000        0.00000000
        -25.44714715        0.00000000        0.00000000        0.00000000
        -25.38648649        0.00000000        0.00000000        0.00000000
        -25.32582583        0.00000000        0.00000000        0.00000000
        -25.26516517        0.00000000        0.00000000        0.00000000
        -25.20450450        0.00000000        0.00000000        0.00000000
        -25.14384384        0.00000000        0.00000000        0.00000000
        -25.08318318        0.00000000        0.00000000        0.00000000
        -25.02252252        0.00000000        0.00000000        0.00000000
        -24.96186186        0.00000000        0.00000000        0.00000000
        -24.90120120        0.00000000        0.00000000        0.00000000
        -24.84054054        0.00000000        0.00000000        0.00000000
        -24.77987988        0.00000000        0.00000000        0.00000000
        -24.71921922        0.00000000        0.00000000        0.00000000
        -24.65855856        0.00000000        0.00000000        0.00000000
        -24.59789790        0.00000000        0.00000000        0.00000000
        -24.53723724        0.00000000        0.00000000        0.00000000
        -24.47657658        0.00000000        0.00000000        0.00000000
        -24.41591592        0.00000000        0.00000000        0.00000000
        -24.35525526        0.00000000        0.00000000        0.00000000
        -24.29459459        0.00000000        0.00000000        0.00000000
        -24.23393393        0.00000000        0.00000000        0.00000000
        -24.17327327        0.00000000        0.00000000        0.00000000
        -24.11261261        0.00000000        0.00000000        0.00000000
        -24.05195195        0.00000000        0.00000000        0.00000000
        -23.99129129        0.00000000        0.00000000        0.00000000
        -23.93063063        0.00000000        0.00000000        0.00000000
        -23.86996997        0.00000000        0.00000000        0.00000000
        -23.80930931        0.00000000        0.00000000        0.00000000
        -23.74864865        0.00000000        0.00000000        0.00000000
        -23.68798799        0.00000000        0.00000000        0.00000000
        -23.62732733        0.00000000        0.00000000        0.00000000
        -23.56666667        0.00000000        0.00000000        0.00000000
        -23.50600601        0.00000000        0.00000000        0.00000000
        -23.44534535        0.00000000        0.00000000        0.00000000
        -23.38468468        0.00000000        0.00000000        0.00000000
        -23.32402402        0.00000000        0.00000000        0.00000000
        -23.26336336        0.00000000        0.00000000        0.00000000
        -23.20270270        0.00000000        0.00000000        0.00000000
        -23.14204204        0.00000000        0.00000000        0.00000000
        -23.08138138        0.00000000        0.00000000        0.00000000
        -23.02072072        0.00000000        0.00000000        0.00000000
        -22.96006006        0.00000000        0.00000000        0.00000000
        -22.89939940        0.00000000        0.00000000        0.00000000
        -22.83873874        0.00000000        0.00000000        0.00000000
        -22.77807808        0.00000000        0.00000000        0.00000000
        -22.71741742        0.00000000        0.00000000        0.00000000
        -22.65675676        0.00000000        0.00000000        0.00000000
        -22.59609610        0.00000000        0.00000000        0.00000000
        -22.53543544        0.00000000        0.00000000        0.00000000
        -22.47477477        0.00000000        0.00000000        0.00000000
        -22.41411411        0.00000000        0.00000000        0.00000000
        -22.35345345        0.00000000        0.00000000        0.00000000
        -22.29279279        0.00000000        0.00000000        0.00000000
        -22.23213213        0.00000000        0.00000000        0.00000000
        -22.17147147        0.00000000        0.00000000        0.00000000
        -22.11081081        0.00000000        0.00000000        0.00000000
        -22.05015015        0.00000000        0.00000000        0.00000000
        -21.98948949        0.00000000        0.00000000        0.00000000
        -21.92882883        0.00000000        0.00000000        0.00000000
        -21.86816817        0.00000000        0.00000000        0.00000000
        -21.80750751        0.00000000        0.00000000        0.00000000
        -21.74684685        0.00000000        0.00000000        0.00000000
        -21.68618619        0.00000000        0.00000000        0.00000000
        -21.62552553        0.00000000        0.00000000        0.00000000
        -21.56486486        0.00000000        0.00000000        0.00000000
        -21.50420420        0.00000000        0.00000000        0.00000000
        -21.44354354        0.00000000        0.00000000        0.00000000
        -21.38288288        0.00000000        0.00000000        0.00000000
        -21.32222222        0.00000000        0.00000000        0.00000000
        -21.26156156        0.00000000        0.00000000        0.00000000
        -21.20090090        0.00000000        0.00000000        0.00000000
        -21.14024024        0.00000000        0.00000000        0.00000000
        -21.07957958        0.00000000        0.00000000        0.00000000
        -21.01891892        0.00000000        0.00000000        0.00000000
        -20.95825826        0.00000000        0.00000000        0.00000000
        -20.89759760        0.00000000        0.00000000        0.00000000
        -20.83693694        0.00000000        0.00000000        0.00000000
        -20.77627628        0.00000000        0.00000000        0.00000000
        -20.71561562        0.00000003        0.00000003        0.00000007
        -20.65495495        0.00000112        0.00000112        0.00000224
        -20.59429429        0.00001836        0.00001836        0.00003672
        -20.53363363        0.00015373        0.00015373        0.00030747
        -20.47297297        0.00070855        0.00070855        0.00141710
        -20.41231231        0.00196913        0.00196913        0.00393826
        -20.35165165        0.00370328        0.00370328        0.00740656
        -20.29099099        0.00560988        0.00560988        0.01121976
        -20.23033033        0.00838327        0.00838327        0.01676653
        -20.16966967        0.01193921        0.01193921        0.02387841
        -20.10900901        0.01428975        0.01428975        0.02857951
        -20.04834835        0.01515294        0.01515294        0.03030588
        -19.98768769        0.01580645        0.01580645        0.03161290
        -19.92702703        0.01656807        0.01656807        0.03313614
        -19.86636637        0.01701072        0.01701072        0.03402144
        -19.80570571        0.01710246        0.01710246        0.03420492
        -19.74504505        0.01649529        0.01649529        0.03299058
        -19.68438438        0.01463134        0.01463134        0.02926269
        -19.62372372        0.01235416        0.01235416        0.02470831
        -19.56306306        0.01116151        0.01116151        0.02232302
        -19.50240240        0.01143378        0.01143378        0.02286756
        -19.44174174        0.01223829        0.01223829        0.02447658
        -19.38108108        0.01274080        0.01274080        0.02548159
        -19.32042042        0.01236537        0.01236537        0.02473074
        -19.25975976        0.01166051        0.01166051        0.02332102
        -19.19909910        0.01153919        0.01153919        0.02307838
        -19.13843844        0.01158218        0.01158218        0.02316436
        -19.07777778        0.01145286        0.01145286        0.02290571
        -19.01711712        0.01168032        0.01168032        0.02336063
        -18.95645646        0.01235353        0.01235353        0.02470706
        -18.89579580        0.01279408        0.01279408        0.02558817
        -18.83513514        0.01253785        0.01253785        0.02507571
        -18.77447447        0.01198401        0.01198401        0.02396803
        -18.71381381        0.01160823        0.01160823        0.02321646
        -18.65315315        0.01114820        0.01114820        0.02229639
        -18.59249249        0.01116722        0.01116722        0.02233443
        -18.53183183        0.01214329        0.01214329        0.02428657
        -18.47117117        0.01388581        0.01388581        0.02777161
        -18.41051051        0.01598634        0.01598634        0.03197268
        -18.34984985        0.01744723        0.01744723        0.03489445
        -18.28918919        0.01752291        0.01752291        0.03504581
        -18.22852853        0.01673952        0.01673952        0.03347905
        -18.16786787        0.01653799        0.01653799        0.03307597
        -18.10720721        0.01672541        0.01672541        0.03345082
        -18.04654655        0.01400493        0.01400493        0.02800987
        -17.98588589        0.00956645        0.00956645        0.01913290
        -17.92522523        0.00634198        0.00634198        0.01268397
        -17.86456456        0.00398374        0.00398374        0.00796748
        -17.80390390        0.00240980        0.00240980        0.00481960
        -17.74324324        0.00133474        0.00133474        0.00266949
        -17.68258258        0.00051903        0.00051903        0.00103806
        -17.62192192        0.00011478        0.00011478        0.00022957
        -17.56126126        0.00001306        0.00001306        0.00002612
        -17.50060060        0.00000072        0.00000072        0.00000145
        -17.43993994        0.00000002        0.00000002        0.00000004
        -17.37927928        0.00000003        0.00000003        0.00000006
        -17.31861862        0.00000081        0.00000081        0.00000162
        -17.25795796        0.00001236        0.00001236        0.00002472
        -17.19729730        0.00010647        0.00010647        0.00021294
        -17.13663664        0.00064799        0.00064799        0.00129598
        -17.07597598        0.00296269        0.00296269        0.00592537
        -17.01531532        0.00917661        0.00917661        0.01835322
        -16.95465465        0.01812865        0.01812865        0.03625730
        -16.89399399        0.02441739        0.02441739        0.04883477
        -16.83333333        0.02674950        0.02674950        0.05349899
        -16.77267267        0.02687144        0.02687144        0.05374287
        -16.71201201        0.02557301        0.02557301        0.05114602
        -16.65135135        0.02450774        0.02450774        0.04901548
        -16.59069069        0.02374978        0.02374978        0.04749955
        -16.53003003        0.02385351        0.02385351        0.04770703
        -16.46936937        0.02444671        0.02444671        0.04889342
        -16.40870871        0.02486629        0.02486629        0.04973258
        -16.34804805        0.02473142        0.02473142        0.04946284
        -16.28738739        0.02385270        0.02385270        0.04770539
        -16.22672673        0.02433276        0.02433276        0.04866553
        -16.16606607        0.02669499        0.02669499        0.05338999
        -16.10540541        0.02786724        0.02786724        0.05573448
        -16.04474474        0.02669175        0.02669175        0.05338349
        -15.98408408        0.02656853        0.02656853        0.05313705
        -15.92342342        0.02833279        0.02833279        0.05666559
        -15.86276276        0.02954984        0.02954984        0.05909969
        -15.80210210        0.03003354        0.03003354        0.06006708
        -15.74144144        0.03216787        0.03216787        0.06433574
        -15.68078078        0.03615991        0.03615991        0.07231982
        -15.62012012        0.04036335        0.04036335        0.08072671
        -15.55945946        0.04705006        0.04705006        0.09410011
        -15.49879880        0.05673022        0.05673022        0.11346043
        -15.43813814        0.06432879        0.06432879        0.12865758
        -15.37747748        0.06673336        0.06673336        0.13346673
        -15.31681682        0.06722305        0.06722305        0.13444610
        -15.25615616        0.07206141        0.07206141        0.14412283
        -15.19549550        0.08551274        0.08551274        0.17102548
        -15.13483483        0.10193562        0.10193562        0.20387124
        -15.07417417        0.11095608        0.11095608        0.22191216
        -15.01351351        0.11362308        0.11362308        0.22724616
        -14.95285285        0.11228124        0.11228124        0.22456249
        -14.89219219        0.10121001        0.10121001        0.20242001
        -14.83153153        0.08241739        0.08241739        0.16483479
        -14.77087087        0.06750916        0.06750916        0.13501832
        -14.71021021        0.05994693        0.05994693        0.11989386
        -14.64954955        0.05398039        0.05398039        0.10796077
        -14.58888889        0.04449204        0.04449204        0.08898407
        -14.52822823        0.03171339        0.03171339        0.06342678
        -14.46756757        0.01747015        0.01747015        0.03494031
        -14.40690691        0.00665235        0.00665235        0.01330470
        -14.34624625        0.00169708        0.00169708        0.00339415
        -14.28558559        0.00027405        0.00027405        0.00054810
        -14.22492492        0.00002564        0.00002564        0.00005128
        -14.16426426        0.00001885        0.00001885        0.00003770
        -14.10360360        0.00025754        0.00025754        0.00051509
        -14.04294294        0.00186044        0.00186044        0.00372087
        -13.98228228        0.00743574        0.00743574        0.01487148
        -13.92162162        0.02164686        0.02164686        0.04329372
        -13.86096096        0.05631283        0.05631283        0.11262566
        -13.80030030        0.11149970        0.11149970        0.22299940
        -13.73963964        0.15592327        0.15592327        0.31184654
        -13.67897898        0.18320795        0.18320795        0.36641590
        -13.61831832        0.20368597        0.20368597        0.40737195
        -13.55765766        0.19867164        0.19867164        0.39734329
        -13.49699700        0.17510546        0.17510546        0.35021092
        -13.43633634        0.16694018        0.16694018        0.33388035
        -13.37567568        0.17425117        0.17425117        0.34850234
        -13.31501502        0.17900402        0.17900402        0.35800804
        -13.25435435        0.18212868        0.18212868        0.36425736
        -13.19369369        0.18203924        0.18203924        0.36407847
        -13.13303303        0.16574729        0.16574729        0.33149459
        -13.07237237        0.14464870        0.14464870        0.28929741
        -13.01171171        0.14934111        0.14934111        0.29868223
        -12.95105105        0.17022114        0.17022114        0.34044229
        -12.89039039        0.16958243        0.16958243        0.33916485
        -12.82972973        0.14810141        0.14810141        0.29620283
        -12.76906907        0.13463224        0.13463224        0.26926448
        -12.70840841        0.13646634        0.13646634        0.27293269
        -12.64774775        0.13482939        0.13482939        0.26965879
        -12.58708709        0.12178564        0.12178564        0.24357128
        -12.52642643        0.10427581        0.10427581        0.20855161
        -12.46576577        0.08209270        0.08209270        0.16418541
        -12.40510511        0.06094466        0.06094466        0.12188933
        -12.34444444        0.04772849        0.04772849        0.09545698
        -12.28378378        0.04041345        0.04041345        0.08082690
        -12.22312312        0.03235592        0.03235592        0.06471183
        -12.16246246        0.02883572        0.02883572        0.05767144
        -12.10180180        0.03906256        0.03906256        0.07812512
        -12.04114114        0.05408213        0.05408213        0.10816425
        -11.98048048        0.06958615        0.06958615        0.13917231
        -11.91981982        0.09204200        0.09204200        0.18408401
        -11.85915916        0.12030178        0.12030178        0.24060357
        -11.79849850        0.14563550        0.14563550        0.29127099
        -11.73783784        0.15732356        0.15732356        0.31464712
        -11.67717718        0.15459256        0.15459256        0.30918512
        -11.61651652        0.15038112        0.15038112        0.30076225
        -11.55585586        0.15426734        0.15426734        0.30853468
        -11.49519520        0.15431696        0.15431696        0.30863392
        -11.43453453        0.14648419        0.14648419        0.29296839
        -11.37387387        0.14792290        0.14792290        0.29584580
        -11.31321321        0.16138990        0.16138990        0.32277980
        -11.25255255        0.17609251        0.17609251        0.35218502
        -11.19189189        0.18672722        0.18672722        0.37345444
        -11.13123123        0.18610329        0.18610329        0.37220658
        -11.07057057        0.17167238        0.17167238        0.34334475
        -11.00990991        0.14376783        0.14376783        0.28753565
        -10.94924925        0.12400972        0.12400972        0.24801945
        -10.88858859        0.12226072        0.12226072        0.24452144
        -10.82792793        0.12253540        0.12253540        0.24507079
        -10.76726727        0.13266613        0.13266613        0.26533227
        -10.70660661        0.15422311        0.15422311        0.30844622
        -10.64594595        0.16850656        0.16850656        0.33701312
        -10.58528529        0.17041122        0.17041122        0.34082244
        -10.52462462        0.16807383        0.16807383        0.33614765
        -10.46396396        0.17105360        0.17105360        0.34210719
        -10.40330330        0.18017616        0.18017616        0.36035233
        -10.34264264        0.18359856        0.18359856        0.36719712
        -10.28198198        0.18164898        0.18164898        0.36329797
        -10.22132132        0.19256836        0.19256836        0.38513673
        -10.16066066        0.20734542        0.20734542        0.41469084
        -10.10000000        0.19853943        0.19853943        0.39707886
        -10.03933934        0.18181327        0.18181327        0.36362654
         -9.97867868        0.19269234        0.19269234        0.38538467
         -9.91801802        0.22602101        0.22602101        0.45204203
         -9.85735736        0.27230305        0.27230305        0.54460610
         -9.79669670        0.32828194        0.32828194        0.65656387
         -9.73603604        0.36359209        0.36359209        0.72718419
         -9.67537538        0.36170518        0.36170518        0.72341035
         -9.61471471        0.33650585        0.33650585        0.67301170
         -9.55405405        0.30376440        0.30376440        0.60752880
         -9.49339339        0.28138626        0.28138626        0.56277253
         -9.43273273        0.28550649        0.28550649        0.57101298
         -9.37207207        0.30480405        0.30480405        0.60960811
         -9.31141141        0.31672821        0.31672821        0.63345642
         -9.25075075        0.33246869        0.33246869        0.66493738
         -9.19009009        0.35390055        0.35390055        0.70780110
         -9.12942943        0.35329973        0.35329973        0.70659946
         -9.06876877        0.32980671        0.32980671        0.65961343
         -9.00810811        0.32103167        0.32103167        0.64206335
         -8.94744745        0.35010814        0.35010814        0.70021627
         -8.88678679        0.38542723        0.38542723        0.77085446
         -8.82612613        0.39087446        0.39087446        0.78174892
         -8.76546547        0.38326679        0.38326679        0.76653358
         -8.70480480        0.37213666        0.37213666        0.74427332
         -8.64414414        0.32531210        0.32531210        0.65062421
         -8.58348348        0.25317102        0.25317102        0.50634205
         -8.52282282        0.20108357        0.20108357        0.40216714
         -8.46216216        0.17096419        0.17096419        0.34192838
         -8.40150150        0.14608237        0.14608237        0.29216473
         -8.34084084        0.12854847        0.12854847        0.25709694
         -8.28018018        0.15473438        0.15473438        0.30946875
         -8.21951952        0.29644155        0.29644155        0.59288309
         -8.15885886        0.51474087        0.51474087        1.02948174
         -8.09819820        0.58361679        0.58361679        1.16723358
         -8.03753754        0.44117192        0.44117192        0.88234385
         -7.97687688        0.29199127        0.29199127        0.58398254
         -7.91621622        0.24661600        0.24661600        0.49323200
         -7.85555556        0.27207706        0.27207706        0.54415413
         -7.79489489        0.35040438        0.35040438        0.70080877
         -7.73423423        0.53087729        0.53087729        1.06175458
         -7.67357357        0.75879864        0.75879864        1.51759729
         -7.61291291        0.76279999        0.76279999        1.52559999
         -7.55225225        0.56669687        0.56669687        1.13339375
         -7.49159159        0.57460515        0.57460515        1.14921030
         -7.43093093        0.97209927        0.97209927        1.94419854
         -7.37027027        1.61562429        1.61562429        3.23124858
         -7.30960961        2.47014803        2.47014803        4.94029605
         -7.24894895        3.26592110        3.26592110        6.53184220
         -7.18828829        3.18640412        3.18640412        6.37280824
         -7.12762763        2.37806304        2.37806304        4.75612607
         -7.06696697        1.55229887        1.55229887        3.10459774
         -7.00630631        0.96360319        0.96360319        1.92720639
         -6.94564565        0.79668588        0.79668588        1.59337176
         -6.88498498        0.89970653        0.89970653        1.79941305
         -6.82432432        1.12500580        1.12500580        2.25001159
         -6.76366366        1.69207327        1.69207327        3.38414654
         -6.70300300        2.12261266        2.12261266        4.24522533
         -6.64234234        1.85847665        1.85847665        3.71695330
         -6.58168168        1.46738051        1.46738051        2.93476102
         -6.52102102        1.32253649        1.32253649        2.64507297
         -6.46036036        1.26638277        1.26638277        2.53276554
         -6.39969970        1.36623119        1.36623119        2.73246238
         -6.33903904        1.61901271        1.61901271        3.23802542
         -6.27837838        1.84207919        1.84207919        3.68415837
         -6.21771772        2.07762626        2.07762626        4.15525251
         -6.15705706        2.20536511        2.20536511        4.41073022