#            ENERGY              s1              s2              total
        -30.30000000        0.00000019        0.00000019        0.00000039
        -30.23933934        0.00000681        0.00000681        0.00001363
        -30.17867868        0.00011465        0.00011465        0.00022929
        -30.11801802        0.00093118        0.00093118        0.00186235
        -30.05735736        0.00371178        0.00371178        0.00742355
        -29.99669670        0.00801937        0.00801937        0.01603874
        -29.93603604        0.01301867        0.01301867        0.02603733
        -29.87537538        0.02250291        0.02250291        0.04500581
        -29.81471471        0.03618132        0.03618132        0.07236263
        -29.75405405        0.04851879        0.04851879        0.09703758
        -29.69339339        0.05888258        0.05888258        0.11776516
        -29.63273273        0.07541341        0.07541341        0.15082683
        -29.57207207        0.10033396        0.10033396        0.20066793
        -29.51141141        0.11243859        0.11243859        0.22487719
        -29.45075075        0.09946142        0.09946142        0.19892284
        -29.39009009        0.07477489        0.07477489        0.14954977
        -29.32942943        0.05429229        0.05429229        0.10858457
        -29.26876877        0.04362760        0.04362760        0.08725519
        -29.20810811        0.03835600        0.03835600        0.07671199
        -29.14744745        0.03959894        0.03959894        0.07919788
        -29.08678679        0.04187440        0.04187440        0.08374880
        -29.02612613        0.03328523        0.03328523        0.06657045
        -28.96546547        0.01742805        0.01742805        0.03485611
        -28.90480480        0.00569337        0.00569337        0.01138674
        -28.84414414        0.00109561        0.00109561        0.00219122
        -28.78348348        0.00011718        0.00011718        0.00023436
        -28.72282282        0.00000657        0.00000657        0.00001314
        -28.66216216        0.00000019        0.00000019        0.00000038
        -28.60150150        0.00000000        0.00000000        0.00000000
        -28.54084084        0.00000000        0.00000000        0.00000000
        -28.48018018        0.00000000        0.00000000        0.00000000
        -28.41951952        0.00000000        0.00000000        0.00000000
        -28.35885886        0.00000000        0.00000000        0.00000000
        -28.29819820        0.00000000        0.00000000        0.00000000
        -28.23753754        0.00000000        0.00000000        0.00000000
        -28.17687688        0.00000000        0.00000000        0.00000000
        -28.11621622        0.00000000        0.00000000        0.00000000
        -28.05555556        0.00000000        0.00000000        0.00000000
        -27.99489489        0.00000000        0.00000000        0.00000000
        -27.93423423        0.00000000        0.00000000        0.00000000
        -27.87357357        0.00000000        0.00000000        0.00000000
        -27.81291291        0.00000000        0.00000000        0.00000000
        -27.75225225        0.00000000        0.00000000        0.00000000
        -27.69159159        0.00000000        0.00000000        0.00000000
        -27.63093093        0.00000000        0.00000000        0.00000000
        -27.57027027        0.00000000        0.00000000        0.00000000
        -27.50960961        0.00000000        0.00000000        0.00000000
        -27.44894895        0.00000000        0.00000000        0.00000000
        -27.38828829        0.00000000        0.00000000        0.00000000
        -27.32762763        0.00000000        0.00000000        0.00000000
        -27.26696697        0.00000000        0.00000000        0.00000000
        -27.20630631        0.00000000        0.00000000        0.00000000
        -27.14564565        0.00000000        0.00000000        0.00000000
        -27.08498498        0.00000000        0.00000000        0.00000000
        -27.02432432        0.00000000        0.00000000        0.00000000
        -26.96366366        0.00000000        0.00000000        0.00000000
        -26.90300300        0.00000000        0.00000000        0.00000000
        -26.84234234        0.00000000        0.00000000        0.00000000
        -26.78168168        0.00000000        0.00000000        0.00000000
        -26.72102102        0.00000000        0.00000000        0.00000000
        -26.66036036        0.00000000        0.00000000        0.00000000
        -26.59969970        0.00000000        0.00000000        0.00000000
        -26.53903904        0.00000000        0.00000000        0.00000000
        -26.47837838        0.00000000        0.00000000        0.00000000
        -26.41771772        0.00000000        0.00000000        0.00000000
        -26.35705706        0.00000000        0.00000000        0.00000000
        -26.29639640        0.00000000        0.00000000        0.00000000
        -26.23573574        0.00000000        0.00000000        0.00000000
        -26.17507508        0.00000000        0.00000000        0.00000000
        -26.11441441        0.00000000        0.00000000        0.00000000
        -26.05375375        0.00000000        0.00000000        0.00000000
        -25.99309309        0.00000000        0.00000000        0.00000000
        -25.93243243        0.00000000        0.00000000        0.00000000
        -25.87177177        0.00000000        0.00000000        0.00000000
        -25.81111111        0.00000000        0.00000000        0.00000000
        -25.75045045        0.00000000        0.00000000        0.00000000
        -25.68978979        0.00000000        0.00000000        0.00000000
        -25.62912913        0.00000000        0.00000000        0.00000000
        -25.56846847        0.00000000        0.00000000        0.00000000
        -25.50780781        0.00000000        0.00000000        0.00000000
        -25.44714715        0.00000000        0.00000000        0.00000000
        -25.38648649        0.00000000        0.00000000        0.00000000
        -25.32582583        0.00000000        0.00000000        0.00000000
        -25.26516517        0.00000000        0.00000000        0.00000000
        -25.20450450        0.00000000        0.00000000        0.00000000
        -25.14384384        0.00000000        0.00000000        0.00000000
        -25.08318318        0.00000000        0.00000000        0.00000000
        -25.02252252        0.00000000        0.00000000        0.00000000
        -24.96186186        0.00000000        0.00000000        0.00000000
        -24.90120120        0.00000000        0.00000000        0.00000000
        -24.84054054        0.00000000        0.00000000        0.00000000
        -24.77987988        0.00000000        0.00000000        0.00000000
        -24.71921922        0.00000000        0.00000000        0.00000000
        -24.65855856        0.00000000        0.00000000        0.00000000
        -24.59789790        0.00000000        0.00000000        0.00000000
        -24.53723724        0.00000000        0.00000000        0.00000000
        -24.47657658        0.00000000        0.00000000        0.00000000
        -24.41591592        0.00000000        0.00000000        0.00000000
        -24.35525526        0.00000000        0.00000000        0.00000000
        -24.29459459        0.00000000        0.00000000        0.00000000
        -24.23393393        0.00000000        0.00000000        0.00000000
        -24.17327327        0.00000000        0.00000000        0.00000000
        -24.11261261        0.00000000        0.00000000        0.00000000
        -24.05195195        0.00000000        0.00000000        0.00000000
        -23.99129129        0.00000000        0.00000000        0.00000000
        -23.93063063        0.00000000        0.00000000        0.00000000
        -23.86996997        0.00000000        0.00000000        0.00000000
        -23.80930931        0.00000000        0.00000000        0.00000000
        -23.74864865        0.00000000        0.00000000        0.00000000
        -23.68798799        0.00000000        0.00000000        0.00000000
        -23.62732733        0.00000000        0.00000000        0.00000000
        -23.56666667        0.00000000        0.00000000        0.00000000
        -23.50600601        0.00000000        0.00000000        0.00000000
        -23.44534535        0.00000000        0.00000000        0.00000000
        -23.38468468        0.00000000        0.00000000        0.00000000
        -23.32402402        0.00000000        0.00000000        0.00000000
        -23.26336336        0.00000000        0.00000000        0.00000000
        -23.20270270        0.00000000        0.00000000        0.00000000
        -23.14204204        0.00000000        0.00000000        0.00000000
        -23.08138138        0.00000000        0.00000000        0.00000000
        -23.02072072        0.00000000        0.00000000        0.00000000
        -22.96006006        0.00000000        0.00000000        0.00000000
        -22.89939940        0.00000000        0.00000000        0.00000000
        -22.83873874        0.00000000        0.00000000        0.00000000
        -22.77807808        0.00000000        0.00000000        0.00000000
        -22.71741742        0.00000000        0.00000000        0.00000000
        -22.65675676        0.00000000        0.00000000        0.00000000
        -22.59609610        0.00000000        0.00000000        0.00000000
        -22.53543544        0.00000000        0.00000000        0.00000000
        -22.47477477        0.00000000        0.00000000        0.00000000
        -22.41411411        0.00000000        0.00000000        0.00000000
        -22.35345345        0.00000000        0.00000000        0.00000000
        -22.29279279        0.00000000        0.00000000        0.00000000
        -22.23213213        0.00000000        0.00000000        0.00000000
        -22.17147147        0.00000000        0.00000000        0.00000000
        -22.11081081        0.00000000        0.00000000        0.00000000
        -22.05015015        0.00000000        0.00000000        0.00000000
        -21.98948949        0.00000000        0.00000000        0.00000000
        -21.92882883        0.00000000        0.00000000        0.00000000
        -21.86816817        0.00000000        0.00000000        0.00000000
        -21.80750751        0.00000000        0.00000000        0.00000000
        -21.74684685        0.00000000        0.00000000        0.00000000
        -21.68618619        0.00000000        0.00000000        0.00000000
        -21.62552553        0.00000000        0.00000000        0.00000000
        -21.56486486        0.00000000        0.00000000        0.00000000
        -21.50420420        0.00000000        0.00000000        0.00000000
        -21.44354354        0.00000000        0.00000000        0.00000000
        -21.38288288        0.00000000        0.00000000        0.00000000
        -21.32222222        0.00000000        0.00000000        0.00000000
        -21.26156156        0.00000000        0.00000000        0.00000000
        -21.20090090        0.00000000        0.00000000        0.00000000
        -21.14024024        0.00000000        0.00000000        0.00000000
        -21.07957958        0.00000000        0.00000000        0.00000000
        -21.01891892        0.00000000        0.00000000        0.00000000
        -20.95825826        0.00000000        0.00000000        0.00000000
        -20.89759760        0.00000000        0.00000000        0.00000000
        -20.83693694        0.00000000        0.00000000        0.00000000
        -20.77627628       -0.00000000       -0.00000000       -0.00000000
        -20.71561562        0.00000001        0.00000001        0.00000001
        -20.65495495        0.00000019        0.00000019        0.00000038
        -20.59429429        0.00000156        0.00000156        0.00000312
        -20.53363363       -0.00000490       -0.00000490       -0.00000981
        -20.47297297       -0.00014443       -0.00014443       -0.00028887
        -20.41231231       -0.00074841       -0.00074841       -0.00149682
        -20.35165165       -0.00160128       -0.00160128       -0.00320256
        -20.29099099       -0.00134640       -0.00134640       -0.00269281
        -20.23033033        0.00071920        0.00071920        0.00143839
        -20.16966967        0.00339178        0.00339178        0.00678355
        -20.10900901        0.00487351        0.00487351        0.00974703
        -20.04834835        0.00536161        0.00536161        0.01072321
        -19.98768769        0.00608019        0.00608019        0.01216038
        -19.92702703        0.00661865        0.00661865        0.01323730
        -19.86636637        0.00633966        0.00633966        0.01267932
        -19.80570571        0.00550055        0.00550055        0.01100110
        -19.74504505        0.00488477        0.00488477        0.00976955
        -19.68438438        0.00514088        0.00514088        0.01028176
        -19.62372372        0.00606795        0.00606795        0.01213590
        -19.56306306        0.00668677        0.00668677        0.01337354
        -19.50240240        0.00682092        0.00682092        0.01364183
        -19.44174174        0.00668081        0.00668081        0.01336162
        -19.38108108        0.00601588        0.00601588        0.01203176
        -19.32042042        0.00542404        0.00542404        0.01084808
        -19.25975976        0.00562638        0.00562638        0.01125275
        -19.19909910        0.00677030        0.00677030        0.01354060
        -19.13843844        0.00807799        0.00807799        0.01615598
        -19.07777778        0.00864558        0.00864558        0.01729117
        -19.01711712        0.00909690        0.00909690        0.01819380
        -18.95645646        0.00989732        0.00989732        0.01979464
        -18.89579580        0.01029584        0.01029584        0.02059169
        -18.83513514        0.01017863        0.01017863        0.02035726
        -18.77447447        0.01005382        0.01005382        0.02010765
        -18.71381381        0.01007944        0.01007944        0.02015888
        -18.65315315        0.00964257        0.00964257        0.01928513
        -18.59249249        0.00879190        0.00879190        0.01758380
        -18.53183183        0.00855084        0.00855084        0.01710169
        -18.47117117        0.00962763        0.00962763        0.01925526
        -18.41051051        0.01124976        0.01124976        0.02249952
        -18.34984985        0.01185061        0.01185061        0.02370121
        -18.28918919        0.01106058        0.01106058        0.02212115
        -18.22852853        0.00998876        0.00998876        0.01997753
        -18.16786787        0.00982530        0.00982530        0.01965061
        -18.10720721        0.00994646        0.00994646        0.01989291
        -18.04654655        0.00817809        0.00817809        0.01635619
        -17.98588589        0.00569377        0.00569377        0.01138753
        -17.92522523        0.00413603        0.00413603        0.00827206
        -17.86456456        0.00307265        0.00307265        0.00614529
        -17.80390390        0.00243511        0.00243511        0.00487023
        -17.74324324        0.00171518        0.00171518        0.00343037
        -17.68258258        0.00076112        0.00076112        0.00152225
        -17.62192192        0.00017858        0.00017858        0.00035716
        -17.56126126        0.00002081        0.00002081        0.00004163
        -17.50060060        0.00000117        0.00000117        0.00000234
        -17.43993994        0.00000003        0.00000003        0.00000006
        -17.37927928        0.00000004        0.00000004        0.00000007
        -17.31861862        0.00000098        0.00000098        0.00000195
        -17.25795796        0.00001449        0.00001449        0.00002899
        -17.19729730        0.00011881        0.00011881        0.00023761
        -17.13663664        0.00065874        0.00065874        0.00131748
        -17.07597598        0.00277424        0.00277424        0.00554848
        -17.01531532        0.00839566        0.00839566        0.01679133
        -16.95465465        0.01696380        0.01696380        0.03392759
        -16.89399399        0.02362036        0.02362036        0.04724071
        -16.83333333        0.02651769        0.02651769        0.05303538
        -16.77267267        0.02750444        0.02750444        0.05500889
        -16.71201201        0.02755078        0.02755078        0.05510156
        -16.65135135        0.02689472        0.02689472        0.05378944
        -16.59069069        0.02453421        0.02453421        0.04906842
        -16.53003003        0.02239099        0.02239099        0.04478198
        -16.46936937        0.02104347        0.02104347        0.04208694
        -16.40870871        0.01960571        0.01960571        0.03921143
        -16.34804805        0.01835107        0.01835107        0.03670213
        -16.28738739        0.01782178        0.01782178        0.03564355
        -16.22672673        0.01895534        0.01895534        0.03791069
        -16.16606607        0.02151060        0.02151060        0.04302121
        -16.10540541        0.02312925        0.02312925        0.04625851
        -16.04474474        0.02331009        0.02331009        0.04662018
        -15.98408408        0.02471314        0.02471314        0.04942628
        -15.92342342        0.02803881        0.02803881        0.05607762
        -15.86276276        0.03063539        0.03063539        0.06127079
        -15.80210210        0.03032729        0.03032729        0.06065459
        -15.74144144        0.03017814        0.03017814        0.06035627
        -15.68078078        0.03257498        0.03257498        0.06514996
        -15.62012012        0.03701036        0.03701036        0.07402071
        -15.55945946        0.04739077        0.04739077        0.09478155
        -15.49879880        0.06432473        0.06432473        0.12864946
        -15.43813814        0.08087115        0.08087115        0.16174231
        -15.37747748        0.09190151        0.09190151        0.18380302
        -15.31681682        0.09952636        0.09952636        0.19905272
        -15.25615616        0.10915594        0.10915594        0.21831189
        -15.19549550        0.12637898        0.12637898        0.25275795
        -15.13483483        0.14570435        0.14570435        0.29140869
        -15.07417417        0.15211788        0.15211788        0.30423577
        -15.01351351        0.14604253        0.14604253        0.29208505
        -14.95285285        0.13489743        0.13489743        0.26979486
        -14.89219219        0.11674627        0.11674627        0.23349254
        -14.83153153        0.09429464        0.09429464        0.18858928
        -14.77087087        0.07787705        0.07787705        0.15575410
        -14.71021021        0.06895351        0.06895351        0.13790702
        -14.64954955        0.06320680        0.06320680        0.12641359
        -14.58888889        0.05511922        0.05511922        0.11023843
        -14.52822823        0.04102027        0.04102027        0.08204054
        -14.46756757        0.02201181        0.02201181        0.04402362
        -14.40690691        0.00741978        0.00741978        0.01483956
        -14.34624625        0.00155257        0.00155257        0.00310514
        -14.28558559        0.00020814        0.00020814        0.00041627
        -14.22492492        0.00001687        0.00001687        0.00003374
        -14.16426426       -0.00000433       -0.00000433       -0.00000867
        -14.10360360       -0.00007040       -0.00007040       -0.00014079
        -14.04294294       -0.00042590       -0.00042590       -0.00085180
        -13.98228228       -0.00050787       -0.00050787       -0.00101575
        -13.92162162        0.00617638        0.00617638        0.01235275
        -13.86096096        0.03325882        0.03325882        0.06651764
        -13.80030030        0.07881166        0.07881166        0.15762332
        -13.73963964        0.11773631        0.11773631        0.23547263
        -13.67897898        0.14104431        0.14104431        0.28208863
        -13.61831832        0.15056371        0.15056371        0.30112742
        -13.55765766        0.14142781        0.14142781        0.28285563
        -13.49699700        0.12663725        0.12663725        0.25327449
        -13.43633634        0.12647059        0.12647059        0.25294119
        -13.37567568        0.13761042        0.13761042        0.27522083
        -13.31501502        0.14390754        0.14390754        0.28781509
        -13.25435435        0.14444777        0.14444777        0.28889554
        -13.19369369        0.14528416        0.14528416        0.29056832
        -13.13303303        0.13832774        0.13832774        0.27665548
        -13.07237237        0.12909075        0.12909075        0.25818149
        -13.01171171        0.14465534        0.14465534        0.28931068
        -12.95105105        0.17392919        0.17392919        0.34785837
        -12.89039039        0.17428493        0.17428493        0.34856986
        -12.82972973        0.14733797        0.14733797        0.29467593
        -12.76906907        0.12883193        0.12883193        0.25766386
        -12.70840841        0.12611164        0.12611164        0.25222329
        -12.64774775        0.12061245        0.12061245        0.24122491
        -12.58708709        0.11152461        0.11152461        0.22304922
        -12.52642643        0.10381818        0.10381818        0.20763636
        -12.46576577        0.09004780        0.09004780        0.18009560
        -12.40510511        0.07218130        0.07218130        0.14436260
        -12.34444444        0.05747435        0.05747435        0.11494870
        -12.28378378        0.04659488        0.04659488        0.09318977
        -12.22312312        0.03251995        0.03251995        0.06503990
        -12.16246246        0.01892255        0.01892255        0.03784511
        -12.10180180        0.01790373        0.01790373        0.03580746
        -12.04114114        0.03044193        0.03044193        0.06088387
        -11.98048048        0.05255506        0.05255506        0.10511013
        -11.91981982        0.07872459        0.07872459        0.15744919
        -11.85915916        0.10489192        0.10489192        0.20978384
        -11.79849850        0.13441345        0.13441345        0.26882690
        -11.73783784        0.15940657        0.15940657        0.31881314
        -11.67717718        0.16489312        0.16489312        0.32978624
        -11.61651652        0.15456601        0.15456601        0.30913201
        -11.55585586        0.14547718        0.14547718        0.29095436
        -11.49519520        0.14254243        0.14254243        0.28508487
        -11.43453453        0.14230858        0.14230858        0.28461716
        -11.37387387        0.15061108        0.15061108        0.30122216
        -11.31321321        0.16569814        0.16569814        0.33139627
        -11.25255255        0.17975495        0.17975495        0.35950990
        -11.19189189        0.19160311        0.19160311        0.38320622
        -11.13123123        0.19441348        0.19441348        0.38882696
        -11.07057057        0.18534899        0.18534899        0.37069797
        -11.00990991        0.16138387        0.16138387        0.32276774
        -10.94924925        0.14198234        0.14198234        0.28396467
        -10.88858859        0.13882400        0.13882400        0.27764800
        -10.82792793        0.13991700        0.13991700        0.27983400
        -10.76726727        0.15566630        0.15566630        0.31133259
        -10.70660661        0.17703409        0.17703409        0.35406819
        -10.64594595        0.18358759        0.18358759        0.36717517
        -10.58528529        0.18273546        0.18273546        0.36547093
        -10.52462462        0.18094622        0.18094622        0.36189243
        -10.46396396        0.18896662        0.18896662        0.37793324
        -10.40330330        0.21205308        0.21205308        0.42410616
        -10.34264264        0.23459351        0.23459351        0.46918702
        -10.28198198        0.24508241        0.24508241        0.49016482
        -10.22132132        0.23585830        0.23585830        0.47171659
        -10.16066066        0.21775246        0.21775246        0.43550493
        -10.10000000        0.20974830        0.20974830        0.41949660
        -10.03933934        0.21991248        0.21991248        0.43982496
         -9.97867868        0.26501968        0.26501968        0.53003936
         -9.91801802        0.33726627        0.33726627        0.67453254
         -9.85735736        0.41533378        0.41533378        0.83066756
         -9.79669670        0.48784209        0.48784209        0.97568418
         -9.73603604        0.51816722        0.51816722        1.03633445
         -9.67537538        0.48886642        0.48886642        0.97773284
         -9.61471471        0.44545384        0.44545384        0.89090769
         -9.55405405        0.41974187        0.41974187        0.83948373
         -9.49339339        0.41606103        0.41606103        0.83212206
         -9.43273273        0.44377795        0.44377795        0.88755591
         -9.37207207        0.48140852        0.48140852        0.96281704
         -9.31141141        0.49223672        0.49223672        0.98447343
         -9.25075075        0.49669106        0.49669106        0.99338212
         -9.19009009        0.50682451        0.50682451        1.01364903
         -9.12942943        0.49154507        0.49154507        0.98309015
         -9.06876877        0.45890824        0.45890824        0.91781648
         -9.00810811        0.44818976        0.44818976        0.89637951
         -8.94744745        0.46185486        0.46185486        0.92370972
         -8.88678679        0.47404421        0.47404421        0.94808842
         -8.82612613        0.47435815        0.47435815        0.94871630
         -8.76546547        0.48280254        0.48280254        0.96560509
         -8.70480480        0.49646700        0.49646700        0.99293399
         -8.64414414        0.46951332        0.46951332        0.93902664
         -8.58348348        0.41128158        0.41128158        0.82256317
         -8.52282282        0.36719423        0.36719423        0.73438846
         -8.46216216        0.33599442        0.33599442        0.67198885
         -8.40150150        0.31290072        0.31290072        0.62580144
         -8.34084084        0.33227143        0.33227143        0.66454287
         -8.28018018        0.58252413        0.58252413        1.16504825
         -8.21951952        1.43386024        1.43386024        2.86772048
         -8.15885886        2.62176461        2.62176461        5.24352922
         -8.09819820        2.92575350        2.92575350        5.85150699
         -8.03753754        2.07885497        2.07885497        4.15770993
         -7.97687688        1.20773275        1.20773275        2.41546550
         -7.91621622        0.89641400        0.89641400        1.79282799
         -7.85555556        0.94445132        0.94445132        1.88890264
         -7.79489489        1.21796111        1.21796111        2.43592221
         -7.73423423        1.89436851        1.89436851        3.78873702
         -7.67357357        2.76349917        2.76349917        5.52699834
         -7.61291291        2.75969097        2.75969097        5.51938195
         -7.55225225        1.91221051        1.91221051        3.82442102
         -7.49159159        1.55857375        1.55857375        3.11714749
         -7.43093093        2.23362748        2.23362748        4.46725496
         -7.37027027        3.66570465        3.66570465        7.33140930
         -7.30960961        5.73676337        5.73676337       11.47352674
         -7.24894895        7.63709037        7.63709037       15.27418074
         -7.18828829        7.60932299        7.60932299       15.21864598
         -7.12762763        5.96773941        5.96773941       11.93547882
         -7.06696697        4.07538135        4.07538135        8.15076270
         -7.00630631        2.46270270        2.46270270        4.92540540
         -6.94564565        1.84057811        1.84057811        3.68115622
         -6.88498498        2.00885136        2.00885136        4.01770272
         -6.82432432        2.37414752        2.37414752        4.74829504
         -6.76366366        3.21578159        3.21578159        6.43156317
         -6.70300300        3.79911166        3.79911166        7.59822331
         -6.64234234        3.23111941        3.23111941        6.46223882
         -6.58168168        2.67518565        2.67518565        5.35037130
         -6.52102102        2.67026104        2.67026104        5.34052207
         -6.46036036        2.30948221        2.30948221        4.61896442
         -6.39969970        1.59403966        1.59403966        3.18807933
         -6.33903904        0.96613634        0.96613634        1.93227268
         -6.27837838        0.64851517        0.64851517        1.29703034
         -6.21771772        0.66878441        0.66878441        1.33756882
         -6.15705706        0.71083393        0.71083393        1.42166785