#            ENERGY              s1              s2              total
        -30.30000000        0.00000046        0.00000046        0.00000091
        -30.23933934        0.00001602        0.00001602        0.00003205
        -30.17867868        0.00026965        0.00026965        0.00053931
        -30.11801802        0.00218507        0.00218507        0.00437014
        -30.05735736        0.00862704        0.00862704        0.01725408
        -29.99669670        0.01786003        0.01786003        0.03572006
        -29.93603604        0.02585759        0.02585759        0.05171519
        -29.87537538        0.04160617        0.04160617        0.08321235
        -29.81471471        0.07131739        0.07131739        0.14263477
        -29.75405405        0.10596217        0.10596217        0.21192434
        -29.69339339        0.13668993        0.13668993        0.27337985
        -29.63273273        0.16885955        0.16885955        0.33771910
        -29.57207207        0.20370697        0.20370697        0.40741395
        -29.51141141        0.21121867        0.21121867        0.42243734
        -29.45075075        0.17793952        0.17793952        0.35587903
        -29.39009009        0.12959359        0.12959359        0.25918718
        -29.32942943        0.09215155        0.09215155        0.18430310
        -29.26876877        0.07187216        0.07187216        0.14374432
        -29.20810811        0.05883796        0.05883796        0.11767591
        -29.14744745        0.05511062        0.05511062        0.11022123
        -29.08678679        0.05613121        0.05613121        0.11226242
        -29.02612613        0.04508379        0.04508379        0.09016758
        -28.96546547        0.02420368        0.02420368        0.04840736
        -28.90480480        0.00810755        0.00810755        0.01621510
        -28.84414414        0.00159103        0.00159103        0.00318207
        -28.78348348        0.00017262        0.00017262        0.00034524
        -28.72282282        0.00000981        0.00000981        0.00001961
        -28.66216216        0.00000029        0.00000029        0.00000058
        -28.60150150        0.00000000        0.00000000        0.00000000
        -28.54084084        0.00000000        0.00000000        0.00000000
        -28.48018018        0.00000000        0.00000000        0.00000000
        -28.41951952        0.00000000        0.00000000        0.00000000
        -28.35885886        0.00000000        0.00000000        0.00000000
        -28.29819820        0.00000000        0.00000000        0.00000000
        -28.23753754        0.00000000        0.00000000        0.00000000
        -28.17687688        0.00000000        0.00000000        0.00000000
        -28.11621622        0.00000000        0.00000000        0.00000000
        -28.05555556        0.00000000        0.00000000        0.00000000
        -27.99489489        0.00000000        0.00000000        0.00000000
        -27.93423423        0.00000000        0.00000000        0.00000000
        -27.87357357        0.00000000        0.00000000        0.00000000
        -27.81291291        0.00000000        0.00000000        0.00000000
        -27.75225225        0.00000000        0.00000000        0.00000000
        -27.69159159        0.00000000        0.00000000        0.00000000
        -27.63093093        0.00000000        0.00000000        0.00000000
        -27.57027027        0.00000000        0.00000000        0.00000000
        -27.50960961        0.00000000        0.00000000        0.00000000
        -27.44894895        0.00000000        0.00000000        0.00000000
        -27.38828829        0.00000000        0.00000000        0.00000000
        -27.32762763        0.00000000        0.00000000        0.00000000
        -27.26696697        0.00000000        0.00000000        0.00000000
        -27.20630631        0.00000000        0.00000000        0.00000000
        -27.14564565        0.00000000        0.00000000        0.00000000
        -27.08498498        0.00000000        0.00000000        0.00000000
        -27.02432432        0.00000000        0.00000000        0.00000000
        -26.96366366        0.00000000        0.00000000        0.00000000
        -26.90300300        0.00000000        0.00000000        0.00000000
        -26.84234234        0.00000000        0.00000000        0.00000000
        -26.78168168        0.00000000        0.00000000        0.00000000
        -26.72102102        0.00000000        0.00000000        0.00000000
        -26.66036036        0.00000000        0.00000000        0.00000000
        -26.59969970        0.00000000        0.00000000        0.00000000
        -26.53903904        0.00000000        0.00000000        0.00000000
        -26.47837838        0.00000000        0.00000000        0.00000000
        -26.41771772        0.00000000        0.00000000        0.00000000
        -26.35705706        0.00000000        0.00000000        0.00000000
        -26.29639640        0.00000000        0.00000000        0.00000000
        -26.23573574        0.00000000        0.00000000        0.00000000
        -26.17507508        0.00000000        0.00000000        0.00000000
        -26.11441441        0.00000000        0.00000000        0.00000000
        -26.05375375        0.00000000        0.00000000        0.00000000
        -25.99309309        0.00000000        0.00000000        0.00000000
        -25.93243243        0.00000000        0.00000000        0.00000000
        -25.87177177        0.00000000        0.00000000        0.00000000
        -25.81111111        0.00000000        0.00000000        0.00000000
        -25.75045045        0.00000000        0.00000000        0.00000000
        -25.68978979        0.00000000        0.00000000        0.00000000
        -25.62912913        0.00000000        0.00000000        0.00000000
        -25.56846847        0.00000000        0.00000000        0.00000000
        -25.50780781        0.00000000        0.00000000        0.00000000
        -25.44714715        0.00000000        0.00000000        0.00000000
        -25.38648649        0.00000000        0.00000000        0.00000000
        -25.32582583        0.00000000        0.00000000        0.00000000
        -25.26516517        0.00000000        0.00000000        0.00000000
        -25.20450450        0.00000000        0.00000000        0.00000000
        -25.14384384        0.00000000        0.00000000        0.00000000
        -25.08318318        0.00000000        0.00000000        0.00000000
        -25.02252252        0.00000000        0.00000000        0.00000000
        -24.96186186        0.00000000        0.00000000        0.00000000
        -24.90120120        0.00000000        0.00000000        0.00000000
        -24.84054054        0.00000000        0.00000000        0.00000000
        -24.77987988        0.00000000        0.00000000        0.00000000
        -24.71921922        0.00000000        0.00000000        0.00000000
        -24.65855856        0.00000000        0.00000000        0.00000000
        -24.59789790        0.00000000        0.00000000        0.00000000
        -24.53723724        0.00000000        0.00000000        0.00000000
        -24.47657658        0.00000000        0.00000000        0.00000000
        -24.41591592        0.00000000        0.00000000        0.00000000
        -24.35525526        0.00000000        0.00000000        0.00000000
        -24.29459459        0.00000000        0.00000000        0.00000000
        -24.23393393        0.00000000        0.00000000        0.00000000
        -24.17327327        0.00000000        0.00000000        0.00000000
        -24.11261261        0.00000000        0.00000000        0.00000000
        -24.05195195        0.00000000        0.00000000        0.00000000
        -23.99129129        0.00000000        0.00000000        0.00000000
        -23.93063063        0.00000000        0.00000000        0.00000000
        -23.86996997        0.00000000        0.00000000        0.00000000
        -23.80930931        0.00000000        0.00000000        0.00000000
        -23.74864865        0.00000000        0.00000000        0.00000000
        -23.68798799        0.00000000        0.00000000        0.00000000
        -23.62732733        0.00000000        0.00000000        0.00000000
        -23.56666667        0.00000000        0.00000000        0.00000000
        -23.50600601        0.00000000        0.00000000        0.00000000
        -23.44534535        0.00000000        0.00000000        0.00000000
        -23.38468468        0.00000000        0.00000000        0.00000000
        -23.32402402        0.00000000        0.00000000        0.00000000
        -23.26336336        0.00000000        0.00000000        0.00000000
        -23.20270270        0.00000000        0.00000000        0.00000000
        -23.14204204        0.00000000        0.00000000        0.00000000
        -23.08138138        0.00000000        0.00000000        0.00000000
        -23.02072072        0.00000000        0.00000000        0.00000000
        -22.96006006        0.00000000        0.00000000        0.00000000
        -22.89939940        0.00000000        0.00000000        0.00000000
        -22.83873874        0.00000000        0.00000000        0.00000000
        -22.77807808        0.00000000        0.00000000        0.00000000
        -22.71741742        0.00000000        0.00000000        0.00000000
        -22.65675676        0.00000000        0.00000000        0.00000000
        -22.59609610        0.00000000        0.00000000        0.00000000
        -22.53543544        0.00000000        0.00000000        0.00000000
        -22.47477477        0.00000000        0.00000000        0.00000000
        -22.41411411        0.00000000        0.00000000        0.00000000
        -22.35345345        0.00000000        0.00000000        0.00000000
        -22.29279279        0.00000000        0.00000000        0.00000000
        -22.23213213        0.00000000        0.00000000        0.00000000
        -22.17147147        0.00000000        0.00000000        0.00000000
        -22.11081081        0.00000000        0.00000000        0.00000000
        -22.05015015        0.00000000        0.00000000        0.00000000
        -21.98948949        0.00000000        0.00000000        0.00000000
        -21.92882883        0.00000000        0.00000000        0.00000000
        -21.86816817        0.00000000        0.00000000        0.00000000
        -21.80750751        0.00000000        0.00000000        0.00000000
        -21.74684685        0.00000000        0.00000000        0.00000000
        -21.68618619        0.00000000        0.00000000        0.00000000
        -21.62552553        0.00000000        0.00000000        0.00000000
        -21.56486486        0.00000000        0.00000000        0.00000000
        -21.50420420        0.00000000        0.00000000        0.00000000
        -21.44354354        0.00000000        0.00000000        0.00000000
        -21.38288288        0.00000000        0.00000000        0.00000000
        -21.32222222        0.00000000        0.00000000        0.00000000
        -21.26156156        0.00000000        0.00000000        0.00000000
        -21.20090090        0.00000000        0.00000000        0.00000000
        -21.14024024        0.00000000        0.00000000        0.00000000
        -21.07957958        0.00000000        0.00000000        0.00000000
        -21.01891892        0.00000000        0.00000000        0.00000000
        -20.95825826        0.00000000        0.00000000        0.00000000
        -20.89759760        0.00000000        0.00000000        0.00000000
        -20.83693694        0.00000000        0.00000000        0.00000000
        -20.77627628        0.00000000        0.00000000        0.00000000
        -20.71561562        0.00000005        0.00000005        0.00000009
        -20.65495495        0.00000149        0.00000149        0.00000298
        -20.59429429        0.00002311        0.00002311        0.00004622
        -20.53363363        0.00017879        0.00017879        0.00035758
        -20.47297297        0.00072537        0.00072537        0.00145073
        -20.41231231        0.00173903        0.00173903        0.00347807
        -20.35165165        0.00312970        0.00312970        0.00625940
        -20.29099099        0.00569076        0.00569076        0.01138152
        -20.23033033        0.01097942        0.01097942        0.02195883
        -20.16966967        0.01781277        0.01781277        0.03562554
        -20.10900901        0.02185916        0.02185916        0.04371831
        -20.04834835        0.02302916        0.02302916        0.04605831
        -19.98768769        0.02428007        0.02428007        0.04856014
        -19.92702703        0.02554184        0.02554184        0.05108368
        -19.86636637        0.02562917        0.02562917        0.05125834
        -19.80570571        0.02482357        0.02482357        0.04964713
        -19.74504505        0.02352846        0.02352846        0.04705692
        -19.68438438        0.02171563        0.02171563        0.04343127
        -19.62372372        0.02009577        0.02009577        0.04019154
        -19.56306306        0.01935965        0.01935965        0.03871929
        -19.50240240        0.01974735        0.01974735        0.03949470
        -19.44174174        0.02043168        0.02043168        0.04086336
        -19.38108108        0.02028023        0.02028023        0.04056047
        -19.32042042        0.01928901        0.01928901        0.03857803
        -19.25975976        0.01873449        0.01873449        0.03746898
        -19.19909910        0.01974066        0.01974066        0.03948132
        -19.13843844        0.02109106        0.02109106        0.04218212
        -19.07777778        0.02150836        0.02150836        0.04301671
        -19.01711712        0.02221152        0.02221152        0.04442304
        -18.95645646        0.02376692        0.02376692        0.04753383
        -18.89579580        0.02466061        0.02466061        0.04932121
        -18.83513514        0.02425993        0.02425993        0.04851986
        -18.77447447        0.02352565        0.02352565        0.04705129
        -18.71381381        0.02314948        0.02314948        0.04629897
        -18.65315315        0.02222740        0.02222740        0.04445479
        -18.59249249        0.02143009        0.02143009        0.04286018
        -18.53183183        0.02228310        0.02228310        0.04456619
        -18.47117117        0.02530247        0.02530247        0.05060493
        -18.41051051        0.02929139        0.02929139        0.05858277
        -18.34984985        0.03152447        0.03152447        0.06304894
        -18.28918919        0.03080888        0.03080888        0.06161775
        -18.22852853        0.02885319        0.02885319        0.05770638
        -18.16786787        0.02833840        0.02833840        0.05667680
        -18.10720721        0.02848634        0.02848634        0.05697268
        -18.04654655        0.02373084        0.02373084        0.04746167
        -17.98588589        0.01652935        0.01652935        0.03305870
        -17.92522523        0.01144094        0.01144094        0.02288189
        -17.86456456        0.00760565        0.00760565        0.01521130
        -17.80390390        0.00509769        0.00509769        0.01019537
        -17.74324324        0.00316232        0.00316232        0.00632464
        -17.68258258        0.00132015        0.00132015        0.00264031
        -17.62192192        0.00030195        0.00030195        0.00060389
        -17.56126126        0.00003484        0.00003484        0.00006969
        -17.50060060        0.00000195        0.00000195        0.00000390
        -17.43993994        0.00000005        0.00000005        0.00000011
        -17.37927928        0.00000007        0.00000007        0.00000014
        -17.31861862        0.00000190        0.00000190        0.00000380
        -17.25795796        0.00002859        0.00002859        0.00005718
        -17.19729730        0.00024052        0.00024052        0.00048105
        -17.13663664        0.00140374        0.00140374        0.00280749
        -17.07597598        0.00621546        0.00621546        0.01243092
        -17.01531532        0.01919014        0.01919014        0.03838029
        -16.95465465        0.03852094        0.03852094        0.07704187
        -16.89399399        0.05272676        0.05272676        0.10545353
        -16.83333333        0.05818275        0.05818275        0.11636550
        -16.77267267        0.05913243        0.05913243        0.11826487
        -16.71201201        0.05759398        0.05759398        0.11518795
        -16.65135135        0.05554310        0.05554310        0.11108620
        -16.59069069        0.05207158        0.05207158        0.10414317
        -16.53003003        0.04997371        0.04997371        0.09994743
        -16.46936937        0.04946164        0.04946164        0.09892327
        -16.40870871        0.04871552        0.04871552        0.09743103
        -16.34804805        0.04736655        0.04736655        0.09473310
        -16.28738739        0.04579749        0.04579749        0.09159498
        -16.22672673        0.04752202        0.04752202        0.09504404
        -16.16606607        0.05287632        0.05287632        0.10575263
        -16.10540541        0.05593005        0.05593005        0.11186010
        -16.04474474        0.05503506        0.05503506        0.11007012
        -15.98408408        0.05658157        0.05658157        0.11316314
        -15.92342342        0.06190121        0.06190121        0.12380242
        -15.86276276        0.06567732        0.06567732        0.13135464
        -15.80210210        0.06566918        0.06566918        0.13133836
        -15.74144144        0.06775865        0.06775865        0.13551729
        -15.68078078        0.07466995        0.07466995        0.14933990
        -15.62012012        0.08393196        0.08393196        0.16786392
        -15.55945946        0.10181817        0.10181817        0.20363635
        -15.49879880        0.12938047        0.12938047        0.25876093
        -15.43813814        0.15397876        0.15397876        0.30795752
        -15.37747748        0.16735823        0.16735823        0.33471646
        -15.31681682        0.17565318        0.17565318        0.35130637
        -15.25615616        0.19081718        0.19081718        0.38163436
        -15.19549550        0.22265508        0.22265508        0.44531015
        -15.13483483        0.25995804        0.25995804        0.51991608
        -15.07417417        0.27685734        0.27685734        0.55371469
        -15.01351351        0.27425434        0.27425434        0.54850868
        -14.95285285        0.26121664        0.26121664        0.52243329
        -14.89219219        0.22980624        0.22980624        0.45961248
        -14.83153153        0.18580767        0.18580767        0.37161534
        -14.77087087        0.15265458        0.15265458        0.30530916
        -14.71021021        0.13547754        0.13547754        0.27095508
        -14.64954955        0.12332192        0.12332192        0.24664383
        -14.58888889        0.10479883        0.10479883        0.20959767
        -14.52822823        0.07649486        0.07649486        0.15298972
        -14.46756757        0.04154199        0.04154199        0.08308398
        -14.40690691        0.01482388        0.01482388        0.02964775
        -14.34624625        0.00342920        0.00342920        0.00685841
        -14.28558559        0.00050964        0.00050964        0.00101928
        -14.22492492        0.00004514        0.00004514        0.00009028
        -14.16426426        0.00002030        0.00002030        0.00004061
        -14.10360360        0.00027010        0.00027010        0.00054020
        -14.04294294        0.00203879        0.00203879        0.00407757
        -13.98228228        0.00938676        0.00938676        0.01877351
        -13.92162162        0.03510440        0.03510440        0.07020881
        -13.86096096        0.10832059        0.10832059        0.21664118
        -13.80030030        0.22660195        0.22660195        0.45320390
        -13.73963964        0.32347987        0.32347987        0.64695975
        -13.67897898        0.38127514        0.38127514        0.76255027
        -13.61831832        0.41540677        0.41540677        0.83081353
        -13.55765766        0.39882843        0.39882843        0.79765686
        -13.49699700        0.35345832        0.35345832        0.70691663
        -13.43633634        0.34163273        0.34163273        0.68326545
        -13.37567568        0.36065108        0.36065108        0.72130216
        -13.31501502        0.37214058        0.37214058        0.74428116
        -13.25435435        0.37695995        0.37695995        0.75391991
        -13.19369369        0.37891211        0.37891211        0.75782423
        -13.13303303        0.35224946        0.35224946        0.70449893
        -13.07237237        0.31673202        0.31673202        0.63346404
        -13.01171171        0.33806388        0.33806388        0.67612776
        -12.95105105        0.39227655        0.39227655        0.78455310
        -12.89039039        0.39046530        0.39046530        0.78093060
        -12.82972973        0.33641232        0.33641232        0.67282464
        -12.76906907        0.30168042        0.30168042        0.60336084
        -12.70840841        0.30255807        0.30255807        0.60511614
        -12.64774775        0.29604236        0.29604236        0.59208471
        -12.58708709        0.26995243        0.26995243        0.53990485
        -12.52642643        0.23851961        0.23851961        0.47703922
        -12.46576577        0.19521471        0.19521471        0.39042942
        -12.40510511        0.14939290        0.14939290        0.29878579
        -12.34444444        0.11712090        0.11712090        0.23424181
        -12.28378378        0.09649227        0.09649227        0.19298455
        -12.22312312        0.07300097        0.07300097        0.14600194
        -12.16246246        0.05873780        0.05873780        0.11747560
        -12.10180180        0.07611736        0.07611736        0.15223472
        -12.04114114        0.11094595        0.11094595        0.22189190
        -11.98048048        0.15423707        0.15423707        0.30847414
        -11.91981982        0.21151283        0.21151283        0.42302565
        -11.85915916        0.27686055        0.27686055        0.55372111
        -11.79849850        0.33936510        0.33936510        0.67873020
        -11.73783784        0.37630693        0.37630693        0.75261387
        -11.67717718        0.37605450        0.37605450        0.75210901
        -11.61651652        0.36185010        0.36185010        0.72370021
        -11.55585586        0.36105530        0.36105530        0.72211059
        -11.49519520        0.35983179        0.35983179        0.71966358
        -11.43453453        0.34977369        0.34977369        0.69954738
        -11.37387387        0.36266792        0.36266792        0.72533583
        -11.31321321        0.40001478        0.40001478        0.80002957
        -11.25255255        0.43504074        0.43504074        0.87008147
        -11.19189189        0.45941121        0.45941121        0.91882242
        -11.13123123        0.46229171        0.46229171        0.92458343
        -11.07057057        0.43721851        0.43721851        0.87443703
        -11.00990991        0.37494622        0.37494622        0.74989244
        -10.94924925        0.32429844        0.32429844        0.64859688
        -10.88858859        0.31839252        0.31839252        0.63678504
        -10.82792793        0.32924995        0.32924995        0.65849990
        -10.76726727        0.37497585        0.37497585        0.74995169
        -10.70660661        0.43868128        0.43868128        0.87736255
        -10.64594595        0.46830129        0.46830129        0.93660257
        -10.58528529        0.47088615        0.47088615        0.94177231
        -10.52462462        0.46946466        0.46946466        0.93892932
        -10.46396396        0.48765160        0.48765160        0.97530320
        -10.40330330        0.53053089        0.53053089        1.06106179
        -10.34264264        0.56002175        0.56002175        1.12004350
        -10.28198198        0.56608725        0.56608725        1.13217450
        -10.22132132        0.57508263        0.57508263        1.15016525
        -10.16066066        0.57883620        0.57883620        1.15767240
        -10.10000000        0.55355453        0.55355453        1.10710905
        -10.03933934        0.54275717        0.54275717        1.08551433
         -9.97867868        0.62010377        0.62010377        1.24020755
         -9.91801802        0.75713428        0.75713428        1.51426856
         -9.85735736        0.91347084        0.91347084        1.82694167
         -9.79669670        1.08129481        1.08129481        2.16258962
         -9.73603604        1.17615726        1.17615726        2.35231451
         -9.67537538        1.15369451        1.15369451        2.30738901
         -9.61471471        1.08386130        1.08386130        2.16772259
         -9.55405405        1.01390830        1.01390830        2.02781660
         -9.49339339        0.97667449        0.97667449        1.95334898
         -9.43273273        1.02117720        1.02117720        2.04235441
         -9.37207207        1.10852674        1.10852674        2.21705349
         -9.31141141        1.16056800        1.16056800        2.32113599
         -9.25075075        1.21613366        1.21613366        2.43226733
         -9.19009009        1.28729326        1.28729326        2.57458653
         -9.12942943        1.29517660        1.29517660        2.59035320
         -9.06876877        1.25109676        1.25109676        2.50219351
         -9.00810811        1.27598883        1.27598883        2.55197766
         -8.94744745        1.42490052        1.42490052        2.84980104
         -8.88678679        1.58091769        1.58091769        3.16183539
         -8.82612613        1.62294079        1.62294079        3.24588159
         -8.76546547        1.61117702        1.61117702        3.22235405
         -8.70480480        1.58168793        1.58168793        3.16337585
         -8.64414414        1.41980276        1.41980276        2.83960552
         -8.58348348        1.16966914        1.16966914        2.33933828
         -8.52282282        0.98924565        0.98924565        1.97849129
         -8.46216216        0.86669064        0.86669064        1.73338128
         -8.40150150        0.75804984        0.75804984        1.51609967
         -8.34084084        0.71869247        0.71869247        1.43738494
         -8.28018018        1.01340236        1.01340236        2.02680472
         -8.21951952        2.15429697        2.15429697        4.30859394
         -8.15885886        3.79597188        3.79597188        7.59194377
         -8.09819820        4.27353476        4.27353476        8.54706951
         -8.03753754        3.21847302        3.21847302        6.43694604
         -7.97687688        2.16013893        2.16013893        4.32027785
         -7.91621622        1.86584431        1.86584431        3.73168861
         -7.85555556        2.03329894        2.03329894        4.06659789
         -7.79489489        2.53126853        2.53126853        5.06253705
         -7.73423423        3.76664071        3.76664071        7.53328143
         -7.67357357        5.43043712        5.43043712       10.86087424
         -7.61291291        5.70994633        5.70994633       11.41989265
         -7.55225225        5.06578854        5.06578854       10.13157708
         -7.49159159        7.21764691        7.21764691       14.43529382
         -7.43093093       14.47274859       14.47274859       28.94549718
         -7.37027027       25.46367522       25.46367522       50.92735043
         -7.30960961       38.85108356       38.85108356       77.70216713
         -7.24894895       49.71248172       49.71248172       99.42496343
         -7.18828829       50.35460103       50.35460103      100.70920205
         -7.12762763       45.78361223       45.78361223       91.56722445
         -7.06696697       38.88490959       38.88490959       77.76981917
         -7.00630631       28.94841125       28.94841125       57.89682251
         -6.94564565       25.82677067       25.82677067       51.65354133
         -6.88498498       28.80908958       28.80908958       57.61817915
         -6.82432432       30.76934978       30.76934978       61.53869956
         -6.76366366       38.55930793       38.55930793       77.11861585
         -6.70300300       49.30549168       49.30549168       98.61098336
         -6.64234234       51.61995334       51.61995334      103.23990668
         -6.58168168       50.77051561       50.77051561      101.54103122
         -6.52102102       52.05359912       52.05359912      104.10719824
         -6.46036036       55.14464123       55.14464123      110.28928247
         -6.39969970       61.46346571       61.46346571      122.92693142
         -6.33903904       65.52590254       65.52590254      131.05180507
         -6.27837838       66.41432456       66.41432456      132.82864911
         -6.21771772       71.19413399       71.19413399      142.38826798
         -6.15705706       75.04739026       75.04739026      150.09478051