Siesta Version:                                        siesta-3.2-pl-3
Architecture  : x86_64-unknown-linux-gnu--Intel
Compiler flags: mpif90 -O3 -xSSSE3 -axSSE4.2,SSE4.1 -ip
PARALLEL version
NetCDF support

* Running on   64 nodes in parallel
>> Start of run:  11-SEP-2014   1:36:00

                           ***********************       
                           *  WELCOME TO SIESTA  *       
                           ***********************       

reinit: Reading from standard input
************************** Dump of input data file ****************************
SystemName      optical
SystemLabel     optical
NumberOfAtoms   1282
NumberOfSpecies 4
MD.TypeOfRun    CG
MD.NumCGsteps   1
MD.ConstantVolume  .true.
SolutionMethod  diagon
XC.functional   GGA
XC.authors      PBE
PAO.BasisSize   DZP
DM.NumberPulay  7
DM.MixingWeight 0.1
DirectPhi       .true.
SaveMemory      .true.
MeshCutoff      500 Ry
MaxSCFiterations 200
UseSaveData     .true.
WriteMullikenPop 1
PAO.EnergyShift 0.001 Ry
WriteDM.NetCDF .false.
WriteDMHS.NetCDF .false.
%block ChemicalSpeciesLabel
 1   1   H
 2   6   C
 3   9   F
 4  47   Ag
%endblock ChemicalSpeciesLabel
LatticeConstant 1.0 Ang
%block LatticeParameters
  22.534   24.472   23.649   90.0 90.0 90.0
%endblock LatticeParameters
AtomicCoordinatesFormat Ang
%block AtomicCoordinatesAndAtomicSpecies < struct.coor
%endblock AtomicCoordinatesAndAtomicSpecies
************************** End of input data file *****************************

reinit: -----------------------------------------------------------------------
reinit: System Name: optical
reinit: -----------------------------------------------------------------------
reinit: System Label: optical                                                     
reinit: -----------------------------------------------------------------------

initatom: Reading input for the pseudopotentials and atomic orbitals ----------
 Species number:            1  Label: H Atomic number:           1
 Species number:            2  Label: C Atomic number:           6
 Species number:            3  Label: F Atomic number:           9
 Species number:            4  Label: Ag Atomic number:          47
Ground state valence configuration:   1s01
Reading pseudopotential information in formatted form from H.psf

Valence configuration for pseudopotential generation:
1s( 1.00) rc: 1.33
2p( 0.00) rc: 1.33
3d( 0.00) rc: 0.37
4f( 0.00) rc: 1.33
Ground state valence configuration:   2s02  2p02
Reading pseudopotential information in formatted form from C.psf

Valence configuration for pseudopotential generation:
2s( 2.00) rc: 1.56
2p( 2.00) rc: 1.56
3d( 0.00) rc: 1.56
4f( 0.00) rc: 1.56
Ground state valence configuration:   2s02  2p05
Reading pseudopotential information in formatted form from F.psf

Valence configuration for pseudopotential generation:
2s( 2.00) rc: 1.41
2p( 5.00) rc: 1.41
3d( 0.00) rc: 1.41
4f( 0.00) rc: 1.41
Ground state valence configuration:   5s01  4d10
Reading pseudopotential information in formatted form from Ag.psf

Valence configuration for pseudopotential generation:
5s( 1.00) rc: 2.52
5p( 0.00) rc: 2.72
4d(10.00) rc: 2.52
4f( 0.00) rc: 2.52
For H, standard SIESTA heuristics set lmxkb to 2
 (one more than the basis l, including polarization orbitals).
Use PS.lmax or PS.KBprojectors blocks to override.
For C, standard SIESTA heuristics set lmxkb to 3
 (one more than the basis l, including polarization orbitals).
Use PS.lmax or PS.KBprojectors blocks to override.
For F, standard SIESTA heuristics set lmxkb to 3
 (one more than the basis l, including polarization orbitals).
Use PS.lmax or PS.KBprojectors blocks to override.
For Ag, standard SIESTA heuristics set lmxkb to 3
 (one more than the basis l, including polarization orbitals).
Use PS.lmax or PS.KBprojectors blocks to override.

<basis_specs>
===============================================================================
H                    Z=   1    Mass=  1.0100        Charge= 0.17977+309
Lmxo=0 Lmxkb= 2    BasisType=split      Semic=F
L=0  Nsemic=0  Cnfigmx=1
          n=1  nzeta=2  polorb=1
            splnorm:   0.15000    
               vcte:    0.0000    
               rinn:    0.0000    
                rcs:    0.0000      0.0000    
            lambdas:   1.00000     1.00000    
-------------------------------------------------------------------------------
L=0  Nkbl=1  erefs: 0.17977+309
L=1  Nkbl=1  erefs: 0.17977+309
L=2  Nkbl=1  erefs: 0.17977+309
===============================================================================
</basis_specs>

atom: Called for H                     (Z =   1)

read_vps: Pseudopotential generation method:
read_vps: ATM 3.2.2 Troullier-Martins                       
Total valence charge:    1.00000

xc_check: Exchange-correlation functional:
xc_check: GGA Perdew, Burke & Ernzerhof 1996
V l=0 = -2*Zval/r beyond r=  1.2656
V l=1 = -2*Zval/r beyond r=  1.2498
V l=2 = -2*Zval/r beyond r=  0.3563
All V_l potentials equal beyond r=  1.2656
This should be close to max(r_c) in ps generation
All pots = -2*Zval/r beyond r=  1.2656

VLOCAL1: 99.0% of the norm of Vloc inside     27.100 Ry
VLOCAL1: 99.9% of the norm of Vloc inside     61.762 Ry
atom: Maximum radius for 4*pi*r*r*local-pseudopot. charge    1.48935
atom: Maximum radius for r*vlocal+2*Zval:    1.24984
GHOST: No ghost state for L =  0
GHOST: No ghost state for L =  1
GHOST: No ghost state for L =  2

KBgen: Kleinman-Bylander projectors: 
   l= 0   rc=  1.398961   el= -0.477209   Ekb= -2.001853   kbcos= -0.352188
   l= 1   rc=  1.470814   el=  0.001006   Ekb= -0.423408   kbcos= -0.024395
   l= 2   rc=  1.489346   el=  0.001895   Ekb= -0.481957   kbcos= -0.001574

KBgen: Total number of  Kleinman-Bylander projectors:    9
atom: -------------------------------------------------------------------------

atom: SANKEY-TYPE ORBITALS:
atom: Selected multiple-zeta basis: split     

SPLIT: Orbitals with angular momentum L= 0

SPLIT: Basis orbitals for state 1s

SPLIT: PAO cut-off radius determined from an
SPLIT: energy shift=  0.001000 Ry

   izeta = 1
                 lambda =    1.000000
                     rc =    7.026209
                 energy =   -0.476258
                kinetic =    0.873901
    potential(screened) =   -1.350160
       potential(ionic) =   -1.868508

   izeta = 2
                 rmatch =    4.103729
              splitnorm =    0.150000
                 energy =   -0.388153
                kinetic =    1.411813
    potential(screened) =   -1.799966
       potential(ionic) =   -2.346436

POLgen: Perturbative polarization orbital with L=  1

POLgen: Polarization orbital for state 1s

   izeta = 1
                     rc =    7.026209
                 energy =    0.513491
                kinetic =    1.100165
    potential(screened) =   -0.586674
       potential(ionic) =   -1.048593
atom: Total number of Sankey-type orbitals:  5

atm_pop: Valence configuration (for local Pseudopot. screening):
 1s( 1.00)                                                            
Vna: chval, zval:    1.00000   1.00000

Vna:  Cut-off radius for the neutral-atom potential:   7.026209

atom: _________________________________________________________________________

<basis_specs>
===============================================================================
C                    Z=   6    Mass=  12.010        Charge= 0.17977+309
Lmxo=1 Lmxkb= 3    BasisType=split      Semic=F
L=0  Nsemic=0  Cnfigmx=2
          n=1  nzeta=2  polorb=0
            splnorm:   0.15000    
               vcte:    0.0000    
               rinn:    0.0000    
                rcs:    0.0000      0.0000    
            lambdas:   1.00000     1.00000    
L=1  Nsemic=0  Cnfigmx=2
          n=1  nzeta=2  polorb=1
            splnorm:   0.15000    
               vcte:    0.0000    
               rinn:    0.0000    
                rcs:    0.0000      0.0000    
            lambdas:   1.00000     1.00000    
-------------------------------------------------------------------------------
L=0  Nkbl=1  erefs: 0.17977+309
L=1  Nkbl=1  erefs: 0.17977+309
L=2  Nkbl=1  erefs: 0.17977+309
L=3  Nkbl=1  erefs: 0.17977+309
===============================================================================
</basis_specs>

atom: Called for C                     (Z =   6)

read_vps: Pseudopotential generation method:
read_vps: ATM 3.2.2 Troullier-Martins                       
Total valence charge:    4.00000

xc_check: Exchange-correlation functional:
xc_check: GGA Perdew, Burke & Ernzerhof 1996
V l=0 = -2*Zval/r beyond r=  1.5227
V l=1 = -2*Zval/r beyond r=  1.5227
V l=2 = -2*Zval/r beyond r=  1.5227
V l=3 = -2*Zval/r beyond r=  1.5227
All V_l potentials equal beyond r=  1.4851
This should be close to max(r_c) in ps generation
All pots = -2*Zval/r beyond r=  1.5227

VLOCAL1: 99.0% of the norm of Vloc inside     19.682 Ry
VLOCAL1: 99.9% of the norm of Vloc inside     44.856 Ry
atom: Maximum radius for 4*pi*r*r*local-pseudopot. charge    1.79142
atom: Maximum radius for r*vlocal+2*Zval:    1.54183
GHOST: No ghost state for L =  0
GHOST: No ghost state for L =  1
GHOST: No ghost state for L =  2
GHOST: No ghost state for L =  3

KBgen: Kleinman-Bylander projectors: 
   l= 0   rc=  1.661951   el= -1.010689   Ekb=  5.289847   kbcos=  0.316429
   l= 1   rc=  1.661951   el= -0.388490   Ekb= -4.102504   kbcos= -0.351025
   l= 2   rc=  1.747182   el=  0.001971   Ekb= -1.006005   kbcos= -0.008530
   l= 3   rc=  1.791422   el=  0.003065   Ekb= -0.421399   kbcos= -0.001072

KBgen: Total number of  Kleinman-Bylander projectors:   16
atom: -------------------------------------------------------------------------

atom: SANKEY-TYPE ORBITALS:
atom: Selected multiple-zeta basis: split     

SPLIT: Orbitals with angular momentum L= 0

SPLIT: Basis orbitals for state 2s

SPLIT: PAO cut-off radius determined from an
SPLIT: energy shift=  0.001000 Ry

   izeta = 1
                 lambda =    1.000000
                     rc =    5.801806
                 energy =   -1.009895
                kinetic =    0.828418
    potential(screened) =   -1.838313
       potential(ionic) =   -5.395016

   izeta = 2
                 rmatch =    3.475094
              splitnorm =    0.150000
                 energy =   -0.868818
                kinetic =    1.308521
    potential(screened) =   -2.177339
       potential(ionic) =   -5.999546

SPLIT: Orbitals with angular momentum L= 1

SPLIT: Basis orbitals for state 2p

SPLIT: PAO cut-off radius determined from an
SPLIT: energy shift=  0.001000 Ry

   izeta = 1
                 lambda =    1.000000
                     rc =    7.449784
                 energy =   -0.387666
                kinetic =    2.318076
    potential(screened) =   -2.705742
       potential(ionic) =   -6.097636

   izeta = 2
                 rmatch =    3.792903
              splitnorm =    0.150000
                 energy =   -0.276721
                kinetic =    3.399803
    potential(screened) =   -3.676524
       potential(ionic) =   -7.455899

POLgen: Perturbative polarization orbital with L=  2

POLgen: Polarization orbital for state 2p

   izeta = 1
                     rc =    7.449784
                 energy =    0.929908
                kinetic =    1.970732
    potential(screened) =   -1.040824
       potential(ionic) =   -3.695745
atom: Total number of Sankey-type orbitals: 13

atm_pop: Valence configuration (for local Pseudopot. screening):
 2s( 2.00)                                                            
 2p( 2.00)                                                            
Vna: chval, zval:    4.00000   4.00000

Vna:  Cut-off radius for the neutral-atom potential:   7.449784

atom: _________________________________________________________________________

<basis_specs>
===============================================================================
F                    Z=   9    Mass=  19.000        Charge= 0.17977+309
Lmxo=1 Lmxkb= 3    BasisType=split      Semic=F
L=0  Nsemic=0  Cnfigmx=2
          n=1  nzeta=2  polorb=0
            splnorm:   0.15000    
               vcte:    0.0000    
               rinn:    0.0000    
                rcs:    0.0000      0.0000    
            lambdas:   1.00000     1.00000    
L=1  Nsemic=0  Cnfigmx=2
          n=1  nzeta=2  polorb=1
            splnorm:   0.15000    
               vcte:    0.0000    
               rinn:    0.0000    
                rcs:    0.0000      0.0000    
            lambdas:   1.00000     1.00000    
-------------------------------------------------------------------------------
L=0  Nkbl=1  erefs: 0.17977+309
L=1  Nkbl=1  erefs: 0.17977+309
L=2  Nkbl=1  erefs: 0.17977+309
L=3  Nkbl=1  erefs: 0.17977+309
===============================================================================
</basis_specs>

atom: Called for F                     (Z =   9)

read_vps: Pseudopotential generation method:
read_vps: ATM 3.2.2 Troullier-Martins                       
Total valence charge:    7.00000

xc_check: Exchange-correlation functional:
xc_check: GGA Perdew, Burke & Ernzerhof 1996
V l=0 = -2*Zval/r beyond r=  1.3199
V l=1 = -2*Zval/r beyond r=  1.3199
V l=2 = -2*Zval/r beyond r=  1.3199
V l=3 = -2*Zval/r beyond r=  1.3199
All V_l potentials equal beyond r=  1.3199
This should be close to max(r_c) in ps generation
All pots = -2*Zval/r beyond r=  1.3199

VLOCAL1: 99.0% of the norm of Vloc inside     24.916 Ry
VLOCAL1: 99.9% of the norm of Vloc inside     56.784 Ry
atom: Maximum radius for 4*pi*r*r*local-pseudopot. charge    1.61221
atom: Maximum radius for r*vlocal+2*Zval:    1.38760
GHOST: No ghost state for L =  0
GHOST: No ghost state for L =  1
GHOST: No ghost state for L =  2
GHOST: No ghost state for L =  3

KBgen: Kleinman-Bylander projectors: 
   l= 0   rc=  1.495695   el= -2.197581   Ekb=  5.601452   kbcos=  0.238748
   l= 1   rc=  1.458760   el= -0.816694   Ekb= -9.171639   kbcos= -0.518972
   l= 2   rc=  1.552860   el=  0.001997   Ekb= -1.845583   kbcos= -0.004774
   l= 3   rc=  1.592177   el=  0.003102   Ekb= -0.701684   kbcos= -0.000616

KBgen: Total number of  Kleinman-Bylander projectors:   16
atom: -------------------------------------------------------------------------

atom: SANKEY-TYPE ORBITALS:
atom: Selected multiple-zeta basis: split     

SPLIT: Orbitals with angular momentum L= 0

SPLIT: Basis orbitals for state 2s

SPLIT: PAO cut-off radius determined from an
SPLIT: energy shift=  0.001000 Ry

   izeta = 1
                 lambda =    1.000000
                     rc =    4.066195
                 energy =   -2.196755
                kinetic =    1.966455
    potential(screened) =   -4.163210
       potential(ionic) =  -14.868929

   izeta = 2
                 rmatch =    2.259523
              splitnorm =    0.150000
                 energy =   -1.883468
                kinetic =    3.053766
    potential(screened) =   -4.937234
       potential(ionic) =  -16.545925

SPLIT: Orbitals with angular momentum L= 1

SPLIT: Basis orbitals for state 2p

SPLIT: PAO cut-off radius determined from an
SPLIT: energy shift=  0.001000 Ry

   izeta = 1
                 lambda =    1.000000
                     rc =    5.221176
                 energy =   -0.815825
                kinetic =    5.800203
    potential(screened) =   -6.616028
       potential(ionic) =  -16.867051

   izeta = 2
                 rmatch =    2.375385
              splitnorm =    0.150000
                 energy =   -0.513701
                kinetic =    8.562067
    potential(screened) =   -9.075768
       potential(ionic) =  -20.580843

POLgen: Perturbative polarization orbital with L=  2

POLgen: Polarization orbital for state 2p

   izeta = 1
                     rc =    5.221176
                 energy =    2.534714
                kinetic =    5.071044
    potential(screened) =   -2.536330
       potential(ionic) =  -10.352162
atom: Total number of Sankey-type orbitals: 13

atm_pop: Valence configuration (for local Pseudopot. screening):
 2s( 2.00)                                                            
 2p( 5.00)                                                            
Vna: chval, zval:    7.00000   7.00000

Vna:  Cut-off radius for the neutral-atom potential:   5.221176

atom: _________________________________________________________________________

<basis_specs>
===============================================================================
Ag                   Z=  47    Mass=  107.87        Charge= 0.17977+309
Lmxo=2 Lmxkb= 3    BasisType=split      Semic=F
L=0  Nsemic=0  Cnfigmx=5
          n=1  nzeta=2  polorb=1
            splnorm:   0.15000    
               vcte:    0.0000    
               rinn:    0.0000    
                rcs:    0.0000      0.0000    
            lambdas:   1.00000     1.00000    
L=1  Nsemic=0  Cnfigmx=5
L=2  Nsemic=0  Cnfigmx=4
          n=1  nzeta=2  polorb=0
            splnorm:   0.15000    
               vcte:    0.0000    
               rinn:    0.0000    
                rcs:    0.0000      0.0000    
            lambdas:   1.00000     1.00000    
-------------------------------------------------------------------------------
L=0  Nkbl=1  erefs: 0.17977+309
L=1  Nkbl=1  erefs: 0.17977+309
L=2  Nkbl=1  erefs: 0.17977+309
L=3  Nkbl=1  erefs: 0.17977+309
===============================================================================
</basis_specs>

atom: Called for Ag                    (Z =  47)

read_vps: Pseudopotential generation method:
read_vps: ATM 3.2.2 Troullier-Martins                       
Total valence charge:   11.00000

xc_check: Exchange-correlation functional:
xc_check: GGA Perdew, Burke & Ernzerhof 1996
V l=0 = -2*Zval/r beyond r=  2.4592
V l=1 = -2*Zval/r beyond r=  2.6507
V l=2 = -2*Zval/r beyond r=  2.4592
V l=3 = -2*Zval/r beyond r=  2.4592
All V_l potentials equal beyond r=  2.6507
This should be close to max(r_c) in ps generation
All pots = -2*Zval/r beyond r=  2.6507

VLOCAL1: 99.0% of the norm of Vloc inside      6.178 Ry
VLOCAL1: 99.9% of the norm of Vloc inside     14.079 Ry
atom: Maximum radius for 4*pi*r*r*local-pseudopot. charge    3.19739
atom: Maximum radius for r*vlocal+2*Zval:    2.82168
GHOST: No ghost state for L =  0
GHOST: No ghost state for L =  1
GHOST: No ghost state for L =  2
GHOST: No ghost state for L =  3

KBgen: Kleinman-Bylander projectors: 
   l= 0   rc=  2.966357   el= -0.323666   Ekb=  3.565490   kbcos=  0.247453
   l= 1   rc=  3.003670   el= -0.054265   Ekb=  1.619308   kbcos=  0.223076
   l= 2   rc=  2.786631   el= -0.547066   Ekb= -7.840816   kbcos= -0.714112
   l= 3   rc=  3.079709   el=  0.002953   Ekb= -2.732950   kbcos= -0.012571

KBgen: Total number of  Kleinman-Bylander projectors:   16
atom: -------------------------------------------------------------------------

atom: SANKEY-TYPE ORBITALS:
atom: Selected multiple-zeta basis: split     

SPLIT: Orbitals with angular momentum L= 0

SPLIT: Basis orbitals for state 5s

SPLIT: PAO cut-off radius determined from an
SPLIT: energy shift=  0.001000 Ry

   izeta = 1
                 lambda =    1.000000
                     rc =    9.486283
                 energy =   -0.322725
                kinetic =    0.270535
    potential(screened) =   -0.593260
       potential(ionic) =   -7.743453

   izeta = 2
                 rmatch =    6.768941
              splitnorm =    0.150000
                 energy =   -0.277703
                kinetic =    0.444695
    potential(screened) =   -0.722398
       potential(ionic) =   -8.538416

SPLIT: Orbitals with angular momentum L= 2

SPLIT: Basis orbitals for state 4d

SPLIT: PAO cut-off radius determined from an
SPLIT: energy shift=  0.001000 Ry

   izeta = 1
                 lambda =    1.000000
                     rc =    5.899358
                 energy =   -0.546288
                kinetic =    5.940648
    potential(screened) =   -6.486936
       potential(ionic) =  -18.280755

   izeta = 2
                 rmatch =    2.650723
              splitnorm =    0.150000
                 energy =   -0.238526
                kinetic =    8.222011
    potential(screened) =   -8.460537
       potential(ionic) =  -21.296963

POLgen: Perturbative polarization orbital with L=  1

POLgen: Polarization orbital for state 5s

   izeta = 1
                     rc =    9.486283
                 energy =   -0.053026
                kinetic =    0.478302
    potential(screened) =   -0.531328
       potential(ionic) =   -7.012902
atom: Total number of Sankey-type orbitals: 15

atm_pop: Valence configuration (for local Pseudopot. screening):
 5s( 1.00)                                                            
 5p( 0.00)                                                            
 4d(10.00)                                                            
Vna: chval, zval:   11.00000  11.00000

Vna:  Cut-off radius for the neutral-atom potential:   9.486283

atom: _________________________________________________________________________

prinput: Basis input ----------------------------------------------------------

PAO.BasisType split     

%block ChemicalSpeciesLabel
    1    1 H                       # Species index, atomic number, species label
    2    6 C                       # Species index, atomic number, species label
    3    9 F                       # Species index, atomic number, species label
    4   47 Ag                      # Species index, atomic number, species label
%endblock ChemicalSpeciesLabel

%block PAO.Basis                 # Define Basis set
H                     1                    # Species label, number of l-shells
 n=1   0   2 P   1                   # n, l, Nzeta, Polarization, NzetaPol
   7.026      4.104   
   1.000      1.000   
C                     2                    # Species label, number of l-shells
 n=2   0   2                         # n, l, Nzeta 
   5.802      3.475   
   1.000      1.000   
 n=2   1   2 P   1                   # n, l, Nzeta, Polarization, NzetaPol
   7.450      3.793   
   1.000      1.000   
F                     2                    # Species label, number of l-shells
 n=2   0   2                         # n, l, Nzeta 
   4.066      2.260   
   1.000      1.000   
 n=2   1   2 P   1                   # n, l, Nzeta, Polarization, NzetaPol
   5.221      2.375   
   1.000      1.000   
Ag                    2                    # Species label, number of l-shells
 n=5   0   2 P   1                   # n, l, Nzeta, Polarization, NzetaPol
   9.486      6.769   
   1.000      1.000   
 n=4   2   2                         # n, l, Nzeta 
   5.899      2.651   
   1.000      1.000   
%endblock PAO.Basis

prinput: ----------------------------------------------------------------------

Dumping basis to NetCDF file H.ion.nc
Dumping basis to NetCDF file C.ion.nc
Dumping basis to NetCDF file F.ion.nc
Dumping basis to NetCDF file Ag.ion.nc
coor:   Atomic-coordinates input format  =     Cartesian coordinates
coor:                                          (in Angstroms)

ioxv: Reading coordinates and velocities from file
! Info in XV file prevails over previous structure input

siesta: Atomic coordinates (Bohr) and species
siesta:     28.77755  31.10441  39.42413  2        1
siesta:     29.13828  31.81159  37.50060  1        2
siesta:     30.52531  30.28835  40.17798  1        3
siesta:     28.19188  32.69169  40.61138  1        4
siesta:     26.71828  29.08787  39.35541  2        5
siesta:     25.74719  29.10454  36.94837  3        6
siesta:     27.86450  26.77242  39.57189  3        7
siesta:     24.49019  29.16089  41.24067  2        8
siesta:     24.20348  27.21248  41.89092  1        9
siesta:     25.04530  30.29068  42.88019  1       10
siesta:     21.88273  30.11882  40.37078  2       11
siesta:     22.22290  32.44151  39.25120  3       12
siesta:     21.03195  28.59780  38.44018  3       13
siesta:     19.68014  30.44375  42.28285  2       14
siesta:     20.28278  31.88416  43.65315  1       15
siesta:     18.11388  31.28008  41.21649  1       16
siesta:     18.58317  28.22021  43.81571  2       17
siesta:     20.49194  26.51214  44.25233  3       18
siesta:     18.12014  29.20132   1.50079  3       19
siesta:     16.19082  26.74806  43.06780  2       20
siesta:     15.65989  25.51507  44.65123  1       21
siesta:     14.66632  28.12296  42.85770  1       22
siesta:     16.08983  25.10240  40.66717  2       23
siesta:     13.67791  24.10827  40.52634  3       24
siesta:     16.12725  26.72593  38.62886  3       25
siesta:     18.04067  22.99825  40.11266  2       26
siesta:     17.63234  22.26709  38.19186  1       27
siesta:     19.90911  23.86342  39.99005  1       28
siesta:     18.28037  20.71523  41.91452  2       29
siesta:     16.17972  20.70823  43.46063  3       30
siesta:     18.01255  18.54413  40.49146  3       31
siesta:     20.60263  20.36486  43.65516  2       32
siesta:     20.40872  21.75775   0.50212  1       33
siesta:     20.43054  18.50042  44.56227  1       34
siesta:     23.34069  20.51741  42.61947  2       35
siesta:     24.25857  22.85740  43.26125  3       36
siesta:     24.81855  18.87659  44.01234  3       37
siesta:     23.94761  20.07177  39.82080  2       38
siesta:     22.52932  18.77314  39.04947  1       39
siesta:     23.81723  21.88255  38.81695  1       40
siesta:     26.54520  18.97761  39.08919  2       41
siesta:     26.88980  19.61984  36.58897  3       42
siesta:     28.43958  20.27358  40.32150  3       43
siesta:     27.08995  16.13435  39.39366  2       44
siesta:     28.85835  15.94931  40.46081  1       45
siesta:     25.59926  15.30188  40.56209  1       46
siesta:     27.29023  14.44923  37.03520  2       47
siesta:     27.22720  11.95789  37.83086  3       48
siesta:     25.06443  14.76468  35.74816  3       49
siesta:     29.42773  14.63643  35.07332  2       50
siesta:     29.45046  12.82814  34.07438  1       51
siesta:     28.88200  16.10602  33.70043  1       52
siesta:     32.17763  15.14590  35.83297  2       53
siesta:     33.39784  16.01491  33.70510  3       54
siesta:     32.24993  17.19481  37.41894  3       55
siesta:     33.88874  13.04838  36.90852  2       56
siesta:     33.41793  11.33296  35.85474  1       57
siesta:     35.83934  13.51814  36.38082  1       58
siesta:     33.86935  12.41001  39.77696  2       59
siesta:     31.41006  12.14935  40.57050  3       60
siesta:     34.83220  10.01877  40.03627  3       61
siesta:     35.22808  14.11616  41.72454  2       62
siesta:     34.56516  16.08109  41.47722  1       63
siesta:     34.60790  13.49210  43.60695  1       64
siesta:     38.14517  14.27175  41.75977  2       65
siesta:     38.84732  15.84168  39.79894  3       66
siesta:     38.82524  15.56823  43.90392  3       67
siesta:     39.82919  11.90772  41.57841  2       68
siesta:     39.49573  11.06531  39.72434  1       69
siesta:     41.82619  12.51259  41.58727  1       70
siesta:     39.61883   9.83363  43.60386  2       71
siesta:     41.88259   9.92694   0.19029  3       72
siesta:     37.88163  10.54516   0.70738  3       73
siesta:     39.09909   7.05508  42.88760  2       74
siesta:     38.56232   6.99067  40.88904  1       75
siesta:     40.88294   6.01054  43.11122  1       76
siesta:     37.09321   5.53482  44.34914  2       77
siesta:     34.74528   6.46286  43.79007  3       78
siesta:     37.17700   3.15551  43.28623  3       79
siesta:     37.33176   5.12506   2.52025  2       80
siesta:     37.52679   3.07719   2.80021  1       81
siesta:     39.11492   5.98338   3.12522  1       82
siesta:     35.27462   5.97238   4.41904  2       83
siesta:     32.95974   5.27530   3.48390  3       84
siesta:     35.51194   4.42436   6.49334  3       85
siesta:     35.02383   8.69473   5.39384  2       86
siesta:     34.50702   9.87745   3.77805  1       87
siesta:     33.36746   8.71722   6.63171  1       88
siesta:     37.17490  10.01322   6.82938  2       89
siesta:     39.36907   8.64947   6.60624  3       90
siesta:     37.72836  12.20952   5.56694  3       91
siesta:     36.87015  10.77148   9.63722  2       92
siesta:     38.44660  12.07843  10.04581  1       93
siesta:     35.10273  11.83228   9.81686  1       94
siesta:     36.93160   8.74010  11.73562  2       95
siesta:     37.25729   6.44011  10.58454  3       96
siesta:     39.08979   9.07079  13.12913  3       97
siesta:     34.69692   8.49642  13.59438  2       98
siesta:     34.78927  10.13330  14.87438  1       99
siesta:     32.93492   8.62956  12.52838  1      100
siesta:     34.46351   6.14623  15.34841  2      101
siesta:     36.55020   6.07028  16.88404  3      102
siesta:     32.45217   6.65414  16.93721  3      103
siesta:     34.05592   3.49081  14.21008  2      104
siesta:     32.28574   2.76677  15.03309  1      105
siesta:     33.78857   3.71591  12.16842  1      106
siesta:     36.01281   1.36314  14.64848  2      107
siesta:     35.84658   0.66444  17.15307  3      108
siesta:     35.13166  45.52057  13.38148  3      109
siesta:     38.85536   1.65289  14.07705  2      110
siesta:     39.26090   3.65368  13.85169  1      111
siesta:     39.84604   1.00162  15.80187  1      112
siesta:     40.11872   0.27237  11.84466  2      113
siesta:      0.08857   0.77742  12.01805  3      114
siesta:     39.90208  43.98004  12.27912  3      115
siesta:     39.25103   0.89823   9.12837  2      116
siesta:     37.18835   1.00323   9.17877  1      117
siesta:     39.97339   2.78854   8.68199  1      118
siesta:     39.96825  45.45643   6.86639  2      119
siesta:     41.14054   0.77012   5.13780  3      120
siesta:     41.79264  43.75642   7.59465  3      121
siesta:     37.87270  44.09172   5.35438  2      122
siesta:     36.22553  45.36860   5.19381  1      123
siesta:     38.59609  43.81654   3.43642  1      124
siesta:     36.84283  41.52536   6.24858  2      125
siesta:     36.59884  41.61424   8.81858  3      126
siesta:     34.37092  41.34951   5.41858  3      127
siesta:     38.20508  39.02539   5.60943  2      128
siesta:     40.21773  39.45094   5.43287  1      129
siesta:     37.98385  37.77690   7.25647  1      130
siesta:     37.37679  37.47671   3.28525  2      131
siesta:     36.93751  39.09733   1.30426  3      132
siesta:     39.40997  36.10405   2.44154  3      133
siesta:     35.05765  35.70984   3.46538  2      134
siesta:     33.79714  36.49323   4.90312  1      135
siesta:     34.05999  35.75975   1.63737  1      136
siesta:     35.43276  32.91720   4.14112  2      137
siesta:     37.52415  32.73991   5.66356  3      138
siesta:     33.50597  32.26063   5.74621  3      139
siesta:     35.66201  30.90997   2.02808  2      140
siesta:     36.45442  31.84086   0.33195  1      141
siesta:     37.02629  29.49325   2.68183  1      142
siesta:     33.29233  29.47801   1.08410  2      143
siesta:     31.50942  31.26660   0.47491  3      144
siesta:     33.94941  28.40168  43.49071  3      145
siesta:     32.08818  27.45105   2.77283  2      146
siesta:     33.65342  26.35371   3.55920  1      147
siesta:     31.16195  28.44411   4.35124  1      148
siesta:     30.16959  25.55564   1.67063  2      149
siesta:     28.89878  24.46733   3.68412  3      150
siesta:     28.30986  26.94614   0.50279  3      151
siesta:     30.91691  23.36286  44.55874  2      152
siesta:     29.28970  22.07637  44.52811  1      153
siesta:     31.09478  24.14216  42.66013  1      154
siesta:     33.25639  21.69447   0.34745  2      155
siesta:     33.70291  21.67383   2.89584  3      156
siesta:     32.61001  19.23549  44.51573  3      157
siesta:     35.78678  22.19585  43.67397  2      158
siesta:     36.21061  20.51847  42.53073  1      159
siesta:     35.51520  23.76578  42.34926  1      160
siesta:     38.20938  22.82598   0.48273  2      161
siesta:     40.05396  23.31119  43.40321  3      162
siesta:     37.83939  25.11807   1.63951  3      163
siesta:     39.36563  20.99009   2.43681  2      164
siesta:     37.99192  19.48203   2.84825  1      165
siesta:     40.94778  20.08569   1.47034  1      166
siesta:     40.38361  22.00852   4.96830  2      167
siesta:     38.38909  22.92602   6.34010  3      168
siesta:     41.17166  19.91892   6.34085  3      169
siesta:     42.56422  23.93480   5.06420  2      170
siesta:      1.53995  23.01488   6.07399  1      171
siesta:      0.59949  24.27779   3.10539  1      172
siesta:     42.25669  26.59263   6.23499  2      173
siesta:      2.11185  27.47564   6.51406  3      174
siesta:     41.17533  28.11403   4.41842  3      175
siesta:     40.89314  27.09677   8.74755  2      176
siesta:     38.88604  27.29469   8.30550  1      177
siesta:     41.12022  25.40161   9.93137  1      178
siesta:     41.61657  29.41602  10.38964  2      179
siesta:     39.55986  29.86989  11.90209  3      180
siesta:      0.88664  28.63864  12.03882  3      181
siesta:     42.45513  31.92961   9.19456  2      182
siesta:      1.93646  31.81609   9.00214  1      183
siesta:     41.63464  31.99400   7.29941  1      184
siesta:     41.81258  34.50396  10.44054  2      185
siesta:     42.33517  36.29926   8.62342  3      186
siesta:     39.22975  34.65702  10.74784  3      187
siesta:      0.45339  35.29705  12.95364  2      188
siesta:     41.78759  34.67493  14.50217  1      189
siesta:      2.22083  34.24636  13.18191  1      190
siesta:      1.04160  38.09362  13.47752  2      191
siesta:     41.34677  39.32828  13.66871  3      192
siesta:      2.03445  38.20725  15.87795  3      193
siesta:      2.75712  39.70476  11.78041  2      194
siesta:      1.63203  40.22714  10.12484  1      195
siesta:      3.14652  41.44720  12.82454  1      196
siesta:      5.29030  38.64728  10.88210  2      197
siesta:      6.53291  37.71292  12.96094  3      198
siesta:      4.79208  36.54434   9.44507  3      199
siesta:      7.16921  40.30926   9.40812  2      200
siesta:      8.14895  41.47613  10.81519  1      201
siesta:      8.58249  39.02100   8.61383  1      202
siesta:      6.25518  42.07744   7.30046  2      203
siesta:      4.60145  40.78528   5.78795  3      204
siesta:      4.83580  43.97577   8.36577  3      205
siesta:      8.15169  43.47619   5.57051  2      206
siesta:      7.03333  44.51797   4.17229  1      207
siesta:      9.17821  44.81557   6.75093  1      208
siesta:     10.15755  42.00060   4.08669  2      209
siesta:     11.85367  41.09209   5.83655  3      210
siesta:      9.03679  39.89225   3.07671  3      211
siesta:     11.70654  43.30150   1.97618  2      212
siesta:     11.20579  45.30496   2.01608  1      213
siesta:     13.70493  43.17782   2.48961  1      214
siesta:     11.49798  42.46167  43.89720  2      215
siesta:      9.11718  43.05114  43.05291  3      216
siesta:     12.99943  44.05363  42.49925  3      217
siesta:     12.07559  39.74006  43.04590  2      218
siesta:     10.34550  38.63160  43.29078  1      219
siesta:     12.49289  39.86622  41.01492  1      220
siesta:     14.27662  38.18302  44.16703  2      221
siesta:     15.50834  37.01485  42.20314  3      222
siesta:     16.04781  39.83016   0.43173  3      223
siesta:     13.88183  36.16231   1.54709  2      224
siesta:     15.75423  35.78938   2.35962  1      225
siesta:     12.75940  37.03221   3.03103  1      226
siesta:     12.64712  33.61679   0.91016  2      227
siesta:     10.66273  34.02904  43.98625  3      228
siesta:     14.35153  32.28248  44.16723  3      229
siesta:     11.70876  31.84374   3.02674  2      230
siesta:     10.80268  30.23589   2.09531  1      231
siesta:     13.37928  31.11992   4.01835  1      232
siesta:      9.82170  32.77818   5.03109  2      233
siesta:     11.10368  33.96779   6.95356  3      234
siesta:      8.40595  34.69320   3.99206  3      235
siesta:      7.96417  30.86911   6.21262  2      236
siesta:      6.57254  31.98645   7.25866  1      237
siesta:      6.98250  29.96268   4.63817  1      238
siesta:      8.95120  28.71550   7.91354  2      239
siesta:      9.05236  26.56282   6.45485  3      240
siesta:     11.43938  29.18025   8.45473  3      241
siesta:      7.63286  27.93018  10.37473  2      242
siesta:      5.72165  27.25489   9.89240  1      243
siesta:      8.65953  26.28256  11.12410  1      244
siesta:      7.35063  29.80045  12.60156  2      245
siesta:      5.62069  31.62342  11.89835  3      246
siesta:      6.22638  28.50240  14.54270  3      247
siesta:      9.70140  31.14438  13.66240  2      248
siesta:     11.30644  29.86804  13.35883  1      249
siesta:      9.98196  32.85563  12.50349  1      250
siesta:      9.79689  31.92991  16.47612  2      251
siesta:      7.67362  33.31612  17.04936  3      252
siesta:      9.61317  29.79038  17.93993  3      253
siesta:     12.07316  33.41946  17.51078  2      254
siesta:     12.47947  34.91016  16.17491  1      255
siesta:     11.40327  34.39254  19.21442  1      256
siesta:     14.53915  32.06295  18.17632  2      257
siesta:     14.25756  30.98221  20.50812  3      258
siesta:     14.81583  30.06450  16.54285  3      259
siesta:     17.11868  33.44564  18.22898  2      260
siesta:     18.30832  32.40268  19.58716  1      261
siesta:     17.96493  33.24052  16.35025  1      262
siesta:     17.28760  36.27015  18.88386  2      263
siesta:     16.19622  37.58075  16.92899  3      264
siesta:     15.69743  36.71189  20.89610  3      265
siesta:     19.85601  37.48475  19.60819  2      266
siesta:     19.49713  38.69974  21.24567  1      267
siesta:     21.11139  35.94777  20.20103  1      268
siesta:     21.32300  39.08937  17.68639  2      269
siesta:     21.88293  37.60562  15.62158  3      270
siesta:     19.76129  40.93422  16.76679  3      271
siesta:     23.75638  40.46045  18.47103  2      272
siesta:     24.64065  41.11424  16.71350  1      273
siesta:     23.21138  42.14991  19.52179  1      274
siesta:     25.80243  39.04743  19.95667  2      275
siesta:     25.88153  36.61204  19.04758  3      276
siesta:     28.06983  40.09395  19.21923  3      277
siesta:     25.72350  39.05249  22.87059  2      278
siesta:     26.02579  41.02037  23.44797  1      279
siesta:     23.82116  38.52638  23.45277  1      280
siesta:     27.62061  37.47296  24.42625  2      281
siesta:     29.11730  36.13363  22.76836  3      282
siesta:     29.24430  39.13561  25.59476  3      283
siesta:     26.70251  35.61170  26.48043  2      284
siesta:     28.21848  34.22504  26.75706  1      285
siesta:     26.56244  36.68392  28.24854  1      286
siesta:     24.23073  34.09002  26.18925  2      287
siesta:     22.20366  35.63157  26.68455  3      288
siesta:     23.91209  33.53449  23.66794  3      289
siesta:     23.82613  31.59744  27.64671  2      290
siesta:     22.00662  30.83070  26.96952  1      291
siesta:     25.31031  30.28695  27.01707  1      292
siesta:     23.81037  31.52481  30.56862  2      293
siesta:     25.34974  29.51027  31.23151  3      294
siesta:     25.18512  33.55682  31.38670  3      295
siesta:     21.40761  31.30699  32.25401  2      296
siesta:     21.29111  29.31074  32.81661  1      297
siesta:     21.81447  32.40081  33.96894  1      298
siesta:     18.76698  32.15336  31.42741  2      299
siesta:     18.84763  34.67681  30.79883  3      300
siesta:     18.17114  31.00123  29.15774  3      301
siesta:     16.50371  31.65635  33.20063  2      302
siesta:     14.81513  31.54319  32.00759  1      303
siesta:     16.81614  29.78622  34.03472  1      304
siesta:     15.86935  33.46078  35.38624  2      305
siesta:     18.05727  33.93813  36.70459  3      306
siesta:     15.21786  35.78416  34.46275  3      307
siesta:     13.84743  32.70974  37.36944  2      308
siesta:     14.63908  31.10037  38.40953  1      309
siesta:     13.70494  34.30664  38.69457  1      310
siesta:     11.15267  31.95931  36.57825  2      311
siesta:     11.36132  29.94325  34.92417  3      312
siesta:     10.01246  30.90127  38.65129  3      313
siesta:      9.29842  33.88249  35.40339  2      314
siesta:     10.19903  34.59702  33.67996  1      315
siesta:      7.62200  32.82331  34.80329  1      316
siesta:      8.39190  36.19324  36.93713  2      317
siesta:      8.03123  35.53563  39.40541  3      318
siesta:     10.39154  37.87549  37.05653  3      319
siesta:      6.08773  37.77569  36.07253  2      320
siesta:      5.98701  39.36032  37.41033  1      321
siesta:      6.55378  38.57884  34.22330  1      322
siesta:      3.41829  36.63408  35.90885  2      323
siesta:      3.28790  34.57867  37.48633  3      324
siesta:      1.75101  38.33789  36.98587  3      325
siesta:      2.37765  35.78885  33.32210  2      326
siesta:      3.95450  35.79493  31.97940  1      327
siesta:      1.78169  33.80245  33.57097  1      328
siesta:      0.14790  37.14095  32.02230  2      329
siesta:     41.77624  35.40806  30.33812  3      330
siesta:     40.77957  37.34082  33.70388  3      331
siesta:      0.46346  39.63030  30.53465  2      332
siesta:      2.14402  39.44472  29.33202  1      333
siesta:     41.41237  39.77607  29.26678  1      334
siesta:      0.69985  42.18318  31.89367  2      335
siesta:      2.92600  42.13343  33.23769  3      336
siesta:      1.17458  43.91759  30.01146  3      337
siesta:     41.13305  43.26020  33.54054  2      338
siesta:     39.89323  44.34760  32.28499  1      339
siesta:     39.98439  41.69879  34.25581  1      340
siesta:     41.65663  45.04366  35.78415  2      341
siesta:      0.41345   0.82675  34.88234  3      342
siesta:     39.35705  46.04587  36.53088  3      343
siesta:      0.42248  43.99858  38.14727  2      344
siesta:     41.93377  42.39117  38.82349  1      345
siesta:      2.27010  43.29540  37.54198  1      346
siesta:      0.88889  45.71134  40.47298  2      347
siesta:      3.45430  46.09349  40.65206  3      348
siesta:     42.51405   1.81403  40.03036  3      349
siesta:     42.56510  44.92270  43.13119  2      350
siesta:     42.13076   0.44289  44.14980  1      351
siesta:     40.77153  43.91551  42.92328  1      352
siesta:      1.73037  43.40824   0.22405  2      353
siesta:      3.23978  45.15884   1.42729  3      354
siesta:      0.26232  42.41530   2.14195  3      355
siesta:      3.46846  41.26333  44.01976  2      356
siesta:      4.07368  41.74046  42.10282  1      357
siesta:      5.13630  41.31672   0.55019  1      358
siesta:      2.57085  38.48391  43.95020  2      359
siesta:      0.09402  38.48741  43.16186  3      360
siesta:      3.87870  37.39956  41.98414  3      361
siesta:      2.84661  36.73496   1.57048  2      362
siesta:      4.67208  37.22420   2.44953  1      363
siesta:      1.34572  37.19386   2.93421  1      364
siesta:      2.86701  33.81891   1.21903  2      365
siesta:      5.25950  33.17555   0.45415  3      366
siesta:      2.68095  32.79912   3.59920  3      367
siesta:      0.90539  32.47915  44.21857  2      368
siesta:     41.68137  32.41378   0.55107  1      369
siesta:      0.61763  33.61164  42.52138  1      370
siesta:      1.38160  29.74573  43.32579  2      371
siesta:      2.34355  28.35613   0.59201  3      372
siesta:     41.62326  28.72517  42.87484  3      373
siesta:      3.02962  29.25317  40.99295  2      374
siesta:      1.74755  28.98117  39.39486  1      375
siesta:      4.10422  30.96569  40.63619  1      376
siesta:      4.90947  27.02436  40.96221  2      377
siesta:      3.59257  24.86367  41.44196  3      378
siesta:      5.75188  26.71316  38.50567  3      379
siesta:      7.28636  27.07959  42.62695  2      380
siesta:      8.92261  27.07659  41.36125  1      381
siesta:      7.30025  28.90391  43.59971  1      382
siesta:      7.83718  25.02417  44.63140  2      383
siesta:     10.26378  25.52160   0.77426  3      384
siesta:      6.38652  25.51652   2.02116  3      385
siesta:      7.76231  22.16211  43.97549  2      386
siesta:      7.52572  21.99171  41.92196  1      387
siesta:      9.64058  21.45419  44.47210  1      388
siesta:      5.83080  20.34556   0.51359  2      389
siesta:      6.45137  20.07175   3.03314  3      390
siesta:      3.50152  21.45652   0.51646  3      391
siesta:      5.54222  17.67572  44.10311  2      392
siesta:      5.70361  17.88183  42.05504  1      393
siesta:      7.18156  16.57119   0.01435  1      394
siesta:      3.18304  16.05887  44.62461  2      395
siesta:      1.30727  16.79519  42.95764  3      396
siesta:      3.78475  13.63770  43.89226  3      397
siesta:      1.99739  15.82945   2.58873  2      398
siesta:      1.72034  17.76752   3.29188  1      399
siesta:      0.12688  14.94591   2.38737  1      400
siesta:      3.40251  14.35871   4.68068  2      401
siesta:      5.96658  14.59609   4.29030  3      402
siesta:      2.93035  15.67769   6.87986  3      403
siesta:      2.79687  11.54936   5.17215  2      404
siesta:      0.86166  11.46947   5.87744  1      405
siesta:      2.85766  10.56622   3.34520  1      406
siesta:      4.41996   9.99176   7.02430  2      407
siesta:      6.84934   9.85740   6.12451  3      408
siesta:      4.66526  11.31733   9.26441  3      409
siesta:      3.60483   7.30204   7.77829  2      410
siesta:      5.02064   6.61870   9.13100  1      411
siesta:      1.81725   7.48403   8.82092  1      412
siesta:      3.20590   5.21106   5.79300  2      413
siesta:      2.57621   3.10312   7.20154  3      414
siesta:      1.01604   5.82857   4.54452  3      415
siesta:      5.30868   4.33954   3.93159  2      416
siesta:      7.11158   5.00349   4.68410  1      417
siesta:      5.37812   2.27029   4.01882  1      418
siesta:      5.22028   5.06220   1.09336  2      419
siesta:      2.84326   4.57352   0.17415  3      420
siesta:      5.43817   7.63148   0.86890  3      421
siesta:      7.02640   3.82762  43.87028  2      422
siesta:      7.02415   1.78705  44.22238  1      423
siesta:      6.14332   4.07163  42.01701  1      424
siesta:      9.78669   4.67338  43.58716  2      425
siesta:     11.17250   3.35062   0.64161  3      426
siesta:     10.64945   3.66803  41.33598  3      427
siesta:     10.62037   7.45684  43.58281  2      428
siesta:     12.19403   7.55227  42.23821  1      429
siesta:      9.06626   8.56027  42.78672  1      430
siesta:     11.52804   8.82290   1.31973  2      431
siesta:     10.65787   7.47850   3.35754  3      432
siesta:     14.10848   8.55532   1.48730  3      433
siesta:     10.87558  11.63540   1.78021  2      434
siesta:      8.97675  12.01000   1.03323  1      435
siesta:     10.71455  11.86681   3.84303  1      436
siesta:     12.62512  13.77240   0.84717  2      437
siesta:     11.66640  15.97271   1.85181  3      438
siesta:     14.91849  13.47912   2.09416  3      439
siesta:     13.26323  14.22552  42.72484  2      440
siesta:     14.72015  15.69341  42.66112  1      441
siesta:     14.16598  12.49965  42.04453  1      442
siesta:     11.20204  15.00643  40.80894  2      443
siesta:      9.07432  13.57148  41.25577  3      444
siesta:     10.49335  17.44758  41.31987  3      445
siesta:     11.71090  14.79814  37.94544  2      446
siesta:     13.56891  13.94187  37.70791  1      447
siesta:     10.34634  13.43362  37.21735  1      448
siesta:     11.62622  17.16379  36.25989  2      449
siesta:     13.20397  18.93882  37.30811  3      450
siesta:     12.79536  16.48956  34.03098  3      451
siesta:      9.10891  18.49805  35.64863  2      452
siesta:      8.83824  19.94884  37.10952  1      453
siesta:      9.39240  19.48807  33.84677  1      454
siesta:      6.63775  16.96409  35.45660  2      455
siesta:      7.07732  14.79095  34.08947  3      456
siesta:      5.99508  16.10332  37.80769  3      457
siesta:      4.25014  18.17981  34.36578  2      458
siesta:      4.77891  19.01333  32.54514  1      459
siesta:      2.91000  16.65672  34.00403  1      460
siesta:      2.85022  20.22732  35.89399  2      461
siesta:      4.48223  21.15180  37.68772  3      462
siesta:      2.53133  22.26005  34.30967  3      463
siesta:      0.33974  19.65045  37.27023  2      464
siesta:      0.26432  17.61052  37.67580  1      465
siesta:      0.46502  20.61886  39.10323  1      466
siesta:     40.34851  20.43117  36.14668  2      467
siesta:     38.76611  20.85925  38.17081  3      468
siesta:     40.51740  22.78210  35.05428  3      469
siesta:     38.84890  18.73186  34.29859  2      470
siesta:     37.89823  17.28472  35.42887  1      471
siesta:     37.37162  19.92966  33.50275  1      472
siesta:     40.14830  17.41693  32.06052  2      473
siesta:     42.24989  18.80758  31.40107  3      474
siesta:     41.10861  15.15560  32.90974  3      475
siesta:     38.69156  16.82114  29.63415  2      476
siesta:     39.76898  15.34667  28.65258  1      477
siesta:     36.86202  16.00709  30.19604  1      478
siesta:     38.13999  18.90778  27.67429  2      479
siesta:     36.54949  17.83784  25.92652  3      480
siesta:     36.72504  20.72484  28.89380  3      481
siesta:     40.29358  20.21757  26.21980  2      482
siesta:     42.06593  19.26088  26.66973  1      483
siesta:     39.91277  19.92758  24.19358  1      484
siesta:     40.74452  23.08476  26.56650  2      485
siesta:     42.51625  23.74963  24.79255  3      486
siesta:     38.56340  24.27628  25.82634  3      487
siesta:     41.54658  24.16719  29.16422  2      488
siesta:     39.93392  23.92685  30.45195  1      489
siesta:      0.53294  23.02627  29.83655  1      490
siesta:     42.37437  26.94046  29.43992  2      491
siesta:      1.36622  27.60878  27.49005  3      492
siesta:     40.25073  28.38165  29.07666  3      493
siesta:      0.97313  27.86571  31.94658  2      494
siesta:     42.42139  29.52943  32.50906  1      495
siesta:      0.66939  26.40448  33.36687  1      496
siesta:      3.76912  28.68639  32.11920  2      497
siesta:      4.22375  30.59184  30.40303  3      498
siesta:      3.92232  29.89739  34.42389  3      499
siesta:      6.02845  26.82335  32.10935  2      500
siesta:      7.70026  27.92501  32.68913  1      501
siesta:      5.68083  25.42443  33.60189  1      502
siesta:      6.82910  25.37686  29.71014  2      503
siesta:      8.67208  23.65784  30.40722  3      504
siesta:      4.84581  23.85226  28.99251  3      505
siesta:      7.72417  26.76634  27.30620  2      506
siesta:      7.49326  25.40612  25.75647  1      507
siesta:      6.42725  28.32606  26.94958  1      508
siesta:     10.43251  27.81936  27.05959  2      509
siesta:     11.62429  27.83163  29.36226  3      510
siesta:     11.76309  26.05730  25.68143  3      511
siesta:     10.91922  30.39653  25.79010  2      512
siesta:     12.96205  30.54324  25.52510  1      513
siesta:     10.08178  30.34584  23.89625  1      514
siesta:      9.99082  32.79775  27.12975  2      515
siesta:      7.81547  33.50205  25.93933  3      516
siesta:      9.26243  32.16793  29.54266  3      517
siesta:     11.73667  35.12280  27.29914  2      518
siesta:     13.47914  34.46953  28.21852  1      519
siesta:     12.22958  35.64783  25.36569  1      520
siesta:     10.86618  37.52441  28.72014  2      521
siesta:      8.49830  37.15496  29.72102  3      522
siesta:     12.44272  37.73255  30.77730  3      523
siesta:     10.93938  40.12184  27.42712  2      524
siesta:     11.44683  41.45999  28.93939  1      525
siesta:     12.49605  40.12136  26.07560  1      526
siesta:      8.60555  41.23601  26.10475  2      527
siesta:      7.08116  42.32108  27.91319  3      528
siesta:      9.46559  43.25224  24.72014  3      529
siesta:      6.91329  39.65119  24.37417  2      530
siesta:      6.46240  37.89312  25.37751  1      531
siesta:      5.14615  40.71651  24.16202  1      532
siesta:      7.85103  38.91408  21.73100  2      533
siesta:     10.33808  38.17156  21.95158  3      534
siesta:      6.60943  36.73312  21.11600  3      535
siesta:      7.57797  40.74013  19.47163  2      536
siesta:      6.35036  39.78434  18.09164  1      537
siesta:      6.54545  42.38759  20.17149  1      538
siesta:      9.91481  41.68664  17.98196  2      539
siesta:     10.85664  39.68088  16.60181  3      540
siesta:      9.00240  43.32659  16.17320  3      541
siesta:     12.13080  43.01423  19.32861  2      542
siesta:     11.31205  44.33953  20.68497  1      543
siesta:     13.12901  41.52788  20.37825  1      544
siesta:     14.14796  44.44105  17.77327  2      545
siesta:     16.38850  44.16531  19.09209  3      546
siesta:     14.48487  43.16423  15.54115  3      547
siesta:     13.87825   1.00282  17.17567  2      548
siesta:     12.02243   1.21622  16.26848  1      549
siesta:     13.84956   2.04289  18.95803  1      550
siesta:     15.80347   2.41269  15.49520  2      551
siesta:     14.53497   2.94305  13.29407  3      552
siesta:     16.14594   4.76555  16.58077  3      553
siesta:     18.40444   1.32637  14.77705  2      554
siesta:     18.27615  45.52814  14.81356  1      555
siesta:     18.72702   1.86977  12.80452  1      556
siesta:     20.81956   2.11910  16.17617  2      557
siesta:     22.76701   0.79194  15.10268  3      558
siesta:     21.33968   4.59430  15.56867  3      559
siesta:     21.05488   1.77120  19.03438  2      560
siesta:     19.20834   2.31844  19.80384  1      561
siesta:     21.33794  46.00966  19.41088  1      562
siesta:     23.08733   3.26431  20.50434  2      563
siesta:     22.04923   5.56775  21.08657  3      564
siesta:     23.35901   2.07958  22.81247  3      565
siesta:     25.78540   3.69546  19.44766  2      566
siesta:     25.61886   4.45312  17.53058  1      567
siesta:     26.65852   5.18412  20.59415  1      568
siesta:     27.65842   1.46929  19.37487  2      569
siesta:     26.45832  45.48872  19.98256  3      570
siesta:     28.26844   1.17401  16.87046  3      571
siesta:     30.16833   1.64156  20.84294  2      572
siesta:     31.35276   0.05612  20.21241  1      573
siesta:     31.13306   3.40032  20.29751  1      574
siesta:     30.11987   1.59126  23.75078  2      575
siesta:     32.52044   2.17280  24.58933  3      576
siesta:     28.65873   3.59995  24.55134  3      577
siesta:     29.20628  45.43776  25.14217  2      578
siesta:     27.13639  45.41607  24.99802  1      579
siesta:     29.88544  43.75648  24.13311  1      580
siesta:     29.77387  45.10944  27.99347  2      581
siesta:     29.35062   1.13352  29.21112  3      582
siesta:     27.94786  43.49305  28.90910  3      583
siesta:     32.36036  44.10757  28.86202  2      584
siesta:     33.05667  42.81867  27.40041  1      585
siesta:     33.63665  45.73851  28.92126  1      586
siesta:     32.62939  42.75185  31.43012  2      587
siesta:     34.84883  43.58358  32.50758  3      588
siesta:     30.77990  43.70919  33.00159  3      589
siesta:     32.55054  39.83159  31.64905  2      590
siesta:     32.64201  39.33839  33.65832  1      591
siesta:     30.67515  39.26066  30.96153  1      592
siesta:     34.55823  38.20158  30.32002  2      593
siesta:     33.89494  38.01064  27.81829  3      594
siesta:     36.80133  39.51418  30.33008  3      595
siesta:     35.18842  35.54483  31.32942  2      596
siesta:     36.99226  35.00108  30.47076  1      597
siesta:     35.46771  35.75369  33.36319  1      598
siesta:     33.32055  33.35736  30.99456  2      599
siesta:     32.94132  32.34954  33.38147  3      600
siesta:     30.97955  34.27924  30.41652  3      601
siesta:     33.89677  31.07981  29.24709  2      602
siesta:     35.50543  30.03646  30.06559  1      603
siesta:     32.23638  29.84646  29.33426  1      604
siesta:     34.52807  31.51059  26.45708  2      605
siesta:     32.96115  33.34482  25.49688  3      606
siesta:     36.88719  32.60292  26.39671  3      607
siesta:     34.61180  29.31480  24.56077  2      608
siesta:     35.62558  30.03053  22.89893  1      609
siesta:     35.74037  27.82446  25.43527  1      610
siesta:     32.19549  28.05588  23.55951  2      611
siesta:     32.94351  25.77103  22.55386  3      612
siesta:     30.74159  27.44658  25.61227  3      613
siesta:     30.56693  29.38519  21.53552  2      614
siesta:     30.23736  31.31591  22.18211  1      615
siesta:     31.71773  29.46343  19.81262  1      616
siesta:     27.96804  28.30698  20.74602  2      617
siesta:     28.37438  26.07003  19.48852  3      618
siesta:     26.67492  27.69993  22.90651  3      619
siesta:     26.19147  29.88651  19.08273  2      620
siesta:     26.09296  31.79918  19.87189  1      621
siesta:     27.08801  30.05517  17.22538  1      622
siesta:     23.43682  28.99575  18.64450  2      623
siesta:     22.08184  29.60462  20.77231  3      624
siesta:     22.38052  30.50482  16.80314  3      625
siesta:     22.72869  26.24901  17.98740  2      626
siesta:     23.28584  25.08507  19.59374  1      627
siesta:     20.65503  26.21629  17.89468  1      628
siesta:     23.68152  24.98889  15.54927  2      629
siesta:     21.84044  25.32710  13.74226  3      630
siesta:     25.68608  26.36202  14.64286  3      631
siesta:     24.46579  22.19793  15.54046  2      632
siesta:     25.03395  21.72129  13.60166  1      633
siesta:     26.18040  22.08867  16.69673  1      634
siesta:     22.66049  20.09074  16.42983  2      635
siesta:     23.93880  17.85889  16.05661  3      636
siesta:     22.41656  20.26362  19.01493  3      637
siesta:     20.05886  19.72870  15.20586  2      638
siesta:     19.76928  21.36884  13.97924  1      639
siesta:     20.18810  18.01661  14.03094  1      640
siesta:     17.66168  19.35608  16.80247  2      641
siesta:     15.74005  18.76414  15.14702  3      642
siesta:     17.96273  17.16944  18.16442  3      643
siesta:     16.68814  21.37806  18.63119  2      644
siesta:     15.45917  20.41890  20.00647  1      645
siesta:     18.31851  22.10960  19.69959  1      646
siesta:     15.24969  23.70269  17.68561  2      647
siesta:     15.75089  25.59429  19.38352  3      648
siesta:     16.39781  24.49167  15.46609  3      649
siesta:     12.37505  23.73247  17.18161  2      650
siesta:     11.90285  25.70229  16.75227  1      651
siesta:     12.07734  22.62730  15.44424  1      652
siesta:     10.49404  22.73886  19.16505  2      653
siesta:     10.05543  20.21510  18.66225  3      654
siesta:     11.71607  22.66417  21.44601  3      655
siesta:      7.94950  24.08305  19.59740  2      656
siesta:      8.33239  25.88833  20.55858  1      657
siesta:      7.19166  24.55065  17.74976  1      658
siesta:      5.77183  22.77548  21.06022  2      659
siesta:      4.50631  24.71315  22.26810  3      660
siesta:      4.01054  21.94004  19.33059  3      661
siesta:      6.21911  20.74730  23.13047  2      662
siesta:      8.19433  20.85436  23.67791  1      663
siesta:      5.10289  21.32137  24.77822  1      664
siesta:      5.58760  17.93944  22.69908  2      665
siesta:      3.03653  17.67425  22.98629  3      666
siesta:      5.99155  17.37638  20.19574  3      667
siesta:      6.90750  15.83987  24.28873  2      668
siesta:      6.46063  14.05850  23.33595  1      669
siesta:      8.95249  16.13794  24.13009  1      670
siesta:      6.35940  15.50117  27.13937  2      671
siesta:      8.12744  16.82543  28.51417  3      672
siesta:      4.10579  16.65881  27.69780  3      673
siesta:      6.23624  12.83689  28.33992  2      674
siesta:      5.43859  13.05291  30.25129  1      675
siesta:      4.84544  11.76995  27.23429  1      676
siesta:      8.61787  11.16220  28.51052  2      677
siesta:      7.76522   8.72881  28.90839  3      678
siesta:      9.69088  11.15809  26.14911  3      679
siesta:     10.71351  11.64064  30.47798  2      680
siesta:     10.99955  13.68975  30.59294  1      681
siesta:      9.99467  10.97662  32.28804  1      682
siesta:     13.34933  10.46389  30.12696  2      683
siesta:     13.09500   8.03061  29.30811  3      684
siesta:     14.50449  11.70961  28.15706  3      685
siesta:     15.32185  10.45564  32.29239  2      686
siesta:     17.17275  10.10671  31.39678  1      687
siesta:     15.37286  12.40029  33.04688  1      688
siesta:     15.08887   8.65006  34.58584  2      689
siesta:     13.11374   9.42297  36.08830  3      690
siesta:     14.31272   6.34156  33.70316  3      691
siesta:     17.37154   8.12289  36.34549  2      692
siesta:     16.61365   7.31967  38.09009  1      693
siesta:     18.49603   6.63601  35.45245  1      694
siesta:     19.16348  10.29654  37.07837  2      695
siesta:     20.73809  10.72689  35.03867  3      696
siesta:     17.78426  12.47511  37.29950  3      697
siesta:     20.86503  10.13681  39.43720  2      698
siesta:     21.78273   8.29609  39.43508  1      699
siesta:     22.38507  11.52708  39.17906  1      700
siesta:     19.71509  10.62665  42.08114  2      701
siesta:     18.84504  13.06809  42.11157  3      702
siesta:     17.53654   9.20385  42.26074  3      703
siesta:     21.19950  10.23133  44.56547  2      704
siesta:     19.98107  10.96107   1.39065  1      705
siesta:     21.37834   8.19475   0.11603  1      706
siesta:     23.81937  11.44344   0.23342  2      707
siesta:     25.25075  10.88169  42.86270  3      708
siesta:     23.53890  14.01288   0.11620  3      709
siesta:     25.33968  10.81520   2.62538  2      710
siesta:     24.39492  11.76406   4.20282  1      711
siesta:     25.20197   8.77146   2.91354  1      712
siesta:     28.17889  11.49045   2.82847  2      713
siesta:     29.06666  10.29892   4.95775  3      714
siesta:     29.43776  10.27730   0.90884  3      715
siesta:     29.06360  14.28451   2.87323  2      716
siesta:     30.61119  14.46500   1.48432  1      717
siesta:     27.51667  15.45013   2.19236  1      718
siesta:     30.01120  15.52683   5.33120  2      719
siesta:     32.33444  14.47456   5.87820  3      720
siesta:     30.50450  18.02806   4.77004  3      721
siesta:     28.39796  15.56813   7.73728  2      722
siesta:     27.03423  17.13040   7.52383  1      723
siesta:     27.35942  13.76589   7.76172  1      724
siesta:     29.68125  15.85219  10.33628  2      725
siesta:     27.80513  16.16367  12.12161  3      726
siesta:     30.74610  13.54961  10.93049  3      727
siesta:     31.72082  17.88408  10.85874  2      728
siesta:     32.46808  17.54033  12.78655  1      729
siesta:     33.29207  17.54609   9.54673  1      730
siesta:     31.01304  20.72800  10.76893  2      731
siesta:     28.58364  20.95999   9.84612  3      732
siesta:     30.85580  21.56374  13.22533  3      733
siesta:     32.69152  22.62259   9.33195  2      734
siesta:     34.57097  21.77666   9.10674  1      735
siesta:     31.83884  22.81456   7.46289  1      736
siesta:     33.10027  25.32806  10.33154  2      737
siesta:     35.06435  25.25508  12.04210  3      738
siesta:     34.02158  26.72763   8.33704  3      739
siesta:     30.91716  26.82126  11.54059  2      740
siesta:     29.14135  26.08895  10.71545  1      741
siesta:     30.94983  26.40116  13.58478  1      742
siesta:     30.80747  29.71643  11.26592  2      743
siesta:     30.25905  30.21834   8.77565  3      744
siesta:     28.70254  30.53265  12.54142  3      745
siesta:     33.02399  31.44400  12.02795  2      746
siesta:     34.70339  30.75854  11.02492  1      747
siesta:     32.58496  33.34038  11.32029  1      748
siesta:     33.73683  31.73095  14.82940  2      749
siesta:     31.58524  32.20279  16.19522  3      750
siesta:     34.51110  29.38697  15.65257  3      751
siesta:     35.75722  33.68114  15.61202  2      752
siesta:     37.53871  32.65006  15.93327  1      753
siesta:     36.05040  34.94391  14.00609  1      754
siesta:     35.30938  35.37643  17.93292  2      755
siesta:     34.65843  33.85221  19.92141  3      756
siesta:     37.62850  36.33655  18.64744  3      757
siesta:     33.37848  37.54813  17.87919  2      758
siesta:     31.52976  36.71624  17.59203  1      759
siesta:     33.40652  38.36190  19.79249  1      760
siesta:     33.69462  39.80553  16.06632  2      761
siesta:     32.48551  41.88094  17.07032  3      762
siesta:     36.19666  40.48412  16.12013  3      763
siesta:     32.96310  39.66395  13.26392  2      764
siesta:     33.11865  41.59714  12.54714  1      765
siesta:     34.46888  38.61600  12.28888  1      766
siesta:     30.38895  38.68207  12.31732  2      767
siesta:     30.78657  37.83657   9.88465  3      768
siesta:     29.76822  36.52055  13.59193  3      769
siesta:     28.03218  40.39311  12.34717  2      770
siesta:     26.46762  39.16811  12.98955  1      771
siesta:     28.34805  41.86515  13.76923  1      772
siesta:     27.04308  41.75035   9.94278  2      773
siesta:     25.75390  39.99998   8.50352  3      774
siesta:     25.18569  43.39958  10.71131  3      775
siesta:     28.81527  43.16499   8.12731  2      776
siesta:     30.32512  41.84997   7.64178  1      777
siesta:     27.75329  43.51055   6.37563  1      778
siesta:     30.06798  45.67369   8.91723  2      779
siesta:     29.72226  46.02766  11.47566  3      780
siesta:     32.63723  45.33197   8.68405  3      781
siesta:     29.54255   1.92172   7.50475  2      782
siesta:     30.95183   3.27952   8.18697  1      783
siesta:     29.94868   1.59069   5.51120  1      784
siesta:     26.95471   3.20745   7.61164  2      785
siesta:     26.93188   5.16718   5.91787  3      786
siesta:     25.22650   1.51933   6.62598  3      787
siesta:     25.85232   4.15705  10.13553  2      788
siesta:     23.85728   4.62245   9.78327  1      789
siesta:     25.88988   2.54160  11.44850  1      790
siesta:     27.09672   6.41372  11.50281  2      791
siesta:     28.37881   5.43760  13.54075  3      792
siesta:     29.01582   7.39738  10.06019  3      793
siesta:     25.50674   8.62104  12.51737  2      794
siesta:     24.41282   7.91294  14.13216  1      795
siesta:     26.88276  10.02148  13.24418  1      796
siesta:     23.72292  10.11444  10.77892  2      797
siesta:     23.82286  12.56390  11.63800  3      798
siesta:     24.80686  10.19994   8.43134  3      799
siesta:     20.90399   9.40308  10.49478  2      800
siesta:     20.64515   7.58844  11.43101  1      801
siesta:     19.81476  10.77931  11.61150  1      802
siesta:     19.68814   9.24413   7.84474  2      803
siesta:     20.00010  11.55584   6.71005  3      804
siesta:     21.10126   7.65087   6.34574  3      805
siesta:     16.90119   8.47660   7.52391  2      806
siesta:     15.86863   9.21944   9.17165  1      807
siesta:     16.20344   9.41144   5.82303  1      808
siesta:     16.24528   5.64454   7.31243  2      809
siesta:     17.71810   4.40539   9.07148  3      810
siesta:     13.81588   5.38034   8.17764  3      811
siesta:     16.44472   4.20782   4.80205  2      812
siesta:     14.64335   4.49468   3.81858  1      813
siesta:     17.95028   5.09317   3.69095  1      814
siesta:     16.94057   1.34631   4.78332  2      815
siesta:     15.16705   0.19275   6.31185  3      816
siesta:     16.35240   0.55843   2.37912  3      817
siesta:     19.58105   0.28549   5.42787  2      818
siesta:     20.97039   1.34753   4.31970  1      819
siesta:     19.95482   0.69758   7.43171  1      820
siesta:     20.20652  43.71616   4.94610  2      821
siesta:     19.94903  43.29908   2.37838  3      822
siesta:     22.75136  43.37790   5.35682  3      823
siesta:     18.77509  41.56510   6.30855  2      824
siesta:     16.79814  41.70597   5.75808  1      825
siesta:     19.45007  39.78171   5.49076  1      826
siesta:     18.86623  41.17671   9.19648  2      827
siesta:     20.78640  39.50188   9.73191  3      828
siesta:     19.63982  43.38844  10.31124  3      829
siesta:     16.54777  40.20817  10.67018  2      830
siesta:     17.03418  40.23750  12.68755  1      831
siesta:     15.03865  41.58712  10.40121  1      832
siesta:     15.43211  37.57877  10.08688  2      833
siesta:     13.11029  37.40526  11.25665  3      834
siesta:     14.84490  37.53440   7.57332  3      835
siesta:     16.93290  35.16085  10.77468  2      836
siesta:     18.43158  35.75366  12.06927  1      837
siesta:     15.63709  33.91780  11.80493  1      838
siesta:     18.14760  33.56560   8.69311  2      839
siesta:     16.20574  32.33354   7.48368  3      840
siesta:     19.17222  35.15580   6.91977  3      841
siesta:     20.10166  31.51833   9.40472  2      842
siesta:     19.28280  30.46423  10.98337  1      843
siesta:     20.17714  30.19991   7.80067  1      844
siesta:     22.81117  32.20056  10.19309  2      845
siesta:     22.70928  33.66993  12.34303  3      846
siesta:     23.92739  30.01795  11.04014  3      847
siesta:     24.63635  33.48920   8.32738  2      848
siesta:     23.90720  35.40779   8.07528  1      849
siesta:     26.47468  33.62975   9.29515  1      850
siesta:     25.06492  32.35221   5.66719  2      851
siesta:     25.46748  29.78955   5.95617  3      852
siesta:     22.84664  32.48915   4.30568  3      853
siesta:     27.21122  33.35070   3.95918  2      854
siesta:     28.96626  32.91404   4.95357  1      855
siesta:     27.18211  32.19895   2.23622  1      856
siesta:     27.37021  36.14395   3.14337  2      857
siesta:     28.68142  37.40406   5.00849  3      858
siesta:     29.00103  36.30666   1.09726  3      859
siesta:     24.99778  37.75032   2.54732  2      860
siesta:     23.74434  37.65209   4.20557  1      861
siesta:     25.62593  39.71447   2.34827  1      862
siesta:     23.32850  37.13889   0.26183  2      863
siesta:     24.15424  34.94172  43.84046  3      864
siesta:     20.97749  36.54416   1.18354  3      865
siesta:     22.90156  39.08793  42.82838  2      866
siesta:     21.41935  38.30887  41.62011  1      867
siesta:     22.10299  40.78249  43.72883  1      868
siesta:     25.10713  39.89001  41.08797  2      869
siesta:     24.45661  42.18430  40.06672  3      870
siesta:     27.17146  40.42374  42.57723  3      871
siesta:     25.99007  38.16665  38.90067  2      872
siesta:     27.60827  37.08295  39.59327  1      873
siesta:     24.49336  36.82492  38.44824  1      874
siesta:     26.81941  39.36654  36.38852  2      875
siesta:     28.83438  40.96597  36.87053  3      876
siesta:     27.85178  37.47642  34.92528  3      877
siesta:     24.95590  40.81153  34.70434  2      878
siesta:     24.82824  42.74237  35.45372  1      879
siesta:     25.87931  40.95870  32.86473  1      880
siesta:     22.25267  39.80566  34.30827  2      881
siesta:     22.39990  37.34222  33.52479  3      882
siesta:     21.14919  39.66598  36.64018  3      883
siesta:     20.36918  41.13694  32.53114  2      884
siesta:     18.64643  39.98656  32.60081  1      885
siesta:     19.90558  42.98539  33.34095  1      886
siesta:     21.02224  41.57205  29.74187  2      887
siesta:     21.97389  43.97632  29.47818  3      888
siesta:     23.05135  40.07503  29.12970  3      889
siesta:     18.95621  41.16922  27.72559  2      890
siesta:     19.17395  39.22024  27.02567  1      891
siesta:     17.14295  41.25339  28.70405  1      892
siesta:     18.76249  42.91306  25.39520  2      893
siesta:     20.94149  42.68059  23.98728  3      894
siesta:     16.97446  41.82048  23.85435  3      895
siesta:     18.18792  45.74668  25.57985  2      896
siesta:     19.96985   0.49576  25.95724  1      897
siesta:     17.50667   0.09559  23.72259  1      898
siesta:     16.28571   0.44673  27.52169  2      899
siesta:     14.43454  44.90507  27.81988  3      900
siesta:     17.49794   0.52885  29.81169  3      901
siesta:     14.98203   3.03222  27.20256  2      902
siesta:     13.64293   3.18972  28.77999  1      903
siesta:     16.45781   4.45301  27.45866  1      904
siesta:     13.57786   3.70884  24.74859  2      905
siesta:     15.33672   4.72243  23.09250  3      906
siesta:     12.85781   1.47575  23.63240  3      907
siesta:     11.26496   5.47841  24.76805  2      908
siesta:     10.30382   5.25644  26.57314  1      909
siesta:     12.02981   7.39651  24.67101  1      910
siesta:      9.24288   5.28273  22.67668  2      911
siesta:      7.86889   7.49761  22.75719  3      912
siesta:     10.49094   5.34837  20.40023  3      913
siesta:      7.34810   3.08748  22.49822  2      914
siesta:      5.86632   3.72766  21.19010  1      915
siesta:      8.34086   1.49536  21.61248  1      916
siesta:      5.97480   2.06647  24.85101  2      917
siesta:      4.93670  45.98453  24.24600  3      918
siesta:      7.74638   1.50111  26.65269  3      919
siesta:      3.89813   3.63706  26.13892  2      920
siesta:      3.73332   2.94322  28.08231  1      921
siesta:      4.59818   5.57989  26.23867  1      922
siesta:      1.20554   3.76516  25.02511  2      923
siesta:      0.29995   6.16813  25.45232  3      924
siesta:      1.37206   3.58863  22.44241  3      925
siesta:     41.79506   1.83204  25.91031  2      926
siesta:     42.54415  46.18909  25.54712  1      927
siesta:     41.55141   2.08891  27.95679  1      928
siesta:     39.10932   1.88106  24.77039  2      929
siesta:     37.44972   1.85147  26.76755  3      930
siesta:     38.73434   4.20825  23.68778  3      931
siesta:     38.26240  46.17358  22.77053  2      932
siesta:     36.49365   0.64066  21.92129  1      933
siesta:     39.70040  46.15853  21.29530  1      934
siesta:     37.72396  43.39272  23.49453  2      935
siesta:     38.17851  43.03796  25.99885  3      936
siesta:     35.13413  43.04774  23.25528  3      937
siesta:     38.95561  41.22497  21.98951  2      938
siesta:     37.97320  39.50056  22.50148  1      939
siesta:     38.57368  41.56306  19.98867  1      940
siesta:     41.80575  40.68482  22.17987  2      941
siesta:      0.39503  42.06121  20.28691  3      942
siesta:      0.17410  41.67569  24.38649  3      943
siesta:      0.18279  37.93547  21.91481  2      944
siesta:     41.77738  37.11959  20.29669  1      945
siesta:      2.20158  38.02913  21.40649  1      946
siesta:     42.52454  36.02582  24.08533  2      947
siesta:      2.00073  36.28688  25.64786  3      948
siesta:     40.54546  36.77607  25.57583  3      949
siesta:     42.15583  33.19571  23.51339  2      950
siesta:     42.01356  32.26087  25.36088  1      951
siesta:     40.31846  33.01318  22.59891  1      952
siesta:      1.50270  31.71002  21.89213  2      953
siesta:      2.33147  33.24857  19.97576  3      954
siesta:      3.61317  31.32392  23.36515  3      955
siesta:      0.79888  29.12065  20.69548  2      956
siesta:      2.53776  28.40804  19.81829  1      957
siesta:      0.30757  27.80022  22.22343  1      958
siesta:     41.29684  28.95039  18.68042  2      959
siesta:     39.08745  29.79257  19.72834  3      960
siesta:     41.82878  30.73982  16.86823  3      961
siesta:     40.74184  26.46533  17.25528  2      962
siesta:     39.51934  26.90580  15.62999  1      963
siesta:     42.54343  25.79317  16.48846  1      964
siesta:     39.52875  24.22282  18.66803  2      965
siesta:     41.45765  22.72601  19.50013  3      966
siesta:     38.39720  25.05745  20.85797  3      967
siesta:     37.60347  22.48729  17.35711  2      968
siesta:     36.82836  21.27335  18.86641  1      969
siesta:     36.06964  23.70307  16.62276  1      970
siesta:     38.44415  20.75882  15.15563  2      971
siesta:     36.45443  20.58982  13.49585  3      972
siesta:     40.28238  22.02329  13.81022  3      973
siesta:     39.46193  18.07800  15.65753  2      974
siesta:     41.18114  18.27718  16.83009  1      975
siesta:     38.03269  17.03028  16.75554  1      976
siesta:     40.19607  16.38625  13.39488  2      977
siesta:     40.10980  13.93546  14.24364  3      978
siesta:     38.26975  16.45184  11.63880  3      979
siesta:      0.13677  16.67367  11.95701  2      980
siesta:      0.28488  15.01455  10.71078  1      981
siesta:     42.53805  18.31991  10.73376  1      982
siesta:      2.69064  16.87299  13.33997  2      983
siesta:      2.48302  15.54331  15.55419  3      984
siesta:      4.42727  15.49854  11.98331  3      985
siesta:      3.86014  19.45407  13.99199  2      986
siesta:      2.37350  20.55653  14.93900  1      987
siesta:      5.31508  19.10178  15.41636  1      988
siesta:      5.05022  21.17767  11.96209  2      989
siesta:      3.15087  22.52445  10.80623  3      990
siesta:      6.38106  23.00158  13.26049  3      991
siesta:      6.79410  20.20451   9.85019  2      992
siesta:      5.68545  18.99868   8.61027  1      993
siesta:      7.36426  21.85403   8.69189  1      994
siesta:      9.21730  18.75519  10.51627  2      995
siesta:     11.15749  20.47276  10.33628  3      996
siesta:      9.20036  18.08271  13.02608  3      997
siesta:      9.91193  16.40266   8.95165  2      998
siesta:      8.17100  15.44549   8.41434  1      999
siesta:     10.84040  17.11329   7.23068  1     1000
siesta:     11.65210  14.37296  10.08926  2     1001
siesta:     12.62544  13.01600   8.07567  3     1002
siesta:     13.76114  15.52193  11.05793  3     1003
siesta:     10.61442  12.45057  12.01591  2     1004
siesta:      8.78217  13.12675  12.71798  1     1005
siesta:     10.27588  10.69398  10.96394  1     1006
siesta:     12.23787  11.74525  14.33768  2     1007
siesta:     11.11216   9.71006  15.48352  3     1008
siesta:     14.50316  10.78380  13.45166  3     1009
siesta:     12.81734  13.71427  16.40242  2     1010
siesta:     14.85559  14.06606  16.38975  1     1011
siesta:     11.91296  15.48616  15.84829  1     1012
siesta:     12.06863  13.25716  19.16611  2     1013
siesta:     12.22416  15.55327  20.38265  3     1014
siesta:      9.51706  12.72918  19.21344  3     1015
siesta:     13.43720  11.24897  20.77822  2     1016
siesta:     12.64023  11.39764  22.70410  1     1017
siesta:     12.93682   9.39578  20.01066  1     1018
siesta:     16.33689  11.28079  21.12000  2     1019
siesta:     17.06992  13.70322  21.66664  3     1020
siesta:     16.82168   9.95086  23.29815  3     1021
siesta:     18.10093  10.13674  19.10772  2     1022
siesta:     18.49299   8.17921  19.68024  1     1023
siesta:     17.05123  10.05404  17.32472  1     1024
siesta:     20.71705  11.33666  18.49307  2     1025
siesta:     22.20586   9.39668  17.59663  3     1026
siesta:     20.40332  12.83849  16.38462  3     1027
siesta:     22.31383  12.81110  20.44616  2     1028
siesta:     22.02001  14.84569  20.12006  1     1029
siesta:     21.53277  12.34999  22.32065  1     1030
siesta:     25.20187  12.36955  20.59887  2     1031
siesta:     26.06941  13.91054  22.51573  3     1032
siesta:     25.56599   9.97510  21.50582  3     1033
siesta:     26.96008  12.70468  18.29455  2     1034
siesta:     27.55817  10.78681  17.71092  1     1035
siesta:     25.84905  13.53160  16.76393  1     1036
siesta:     29.41537  14.30748  18.54080  2     1037
siesta:     30.71035  13.54607  20.65741  3     1038
siesta:     30.92747  13.54373  16.57936  3     1039
siesta:     29.29413  17.21020  18.46415  2     1040
siesta:     28.88119  17.73180  16.49418  1     1041
siesta:     27.67000  17.78162  19.61365  1     1042
siesta:     31.58870  18.81205  19.28857  2     1043
siesta:     33.66278  17.77856  18.12545  3     1044
siesta:     31.35141  21.16299  18.20418  3     1045
siesta:     32.26231  19.28341  22.06752  2     1046
siesta:     33.24383  17.60259  22.72136  1     1047
siesta:     33.60814  20.86854  22.14914  1     1048
siesta:     30.14997  19.78236  23.95773  2     1049
siesta:     28.29709  21.10977  22.69553  3     1050
siesta:     29.12364  17.47225  24.52984  3     1051
siesta:     30.64170  21.20599  26.45622  2     1052
siesta:     32.48838  22.11201  26.28707  1     1053
siesta:     29.19793  22.70181  26.54874  1     1054
siesta:     30.57466  19.82300  29.02317  2     1055
siesta:     28.24535  18.69075  29.34351  3     1056
siesta:     32.21110  17.80151  28.90735  3     1057
siesta:     31.10469  21.24056  31.55730  2     1058
siesta:     29.68491  20.56055  32.91562  1     1059
siesta:     32.94809  20.57231  32.20506  1     1060
siesta:     31.15735  24.13406  31.79699  2     1061
siesta:     33.19277  25.05020  30.46021  3     1062
siesta:     29.11664  25.12805  30.54341  3     1063
siesta:     31.17619  25.39310  34.42994  2     1064
siesta:     30.61349  27.38460  34.18619  1     1065
siesta:     29.67790  24.48618  35.53474  1     1066
siesta:     33.57335  25.34184  36.10129  2     1067
siesta:     32.82870  25.99214  38.49897  3     1068
siesta:     34.33423  22.85601  36.34277  3     1069
siesta:     35.90443  26.94210  35.42705  2     1070
siesta:     37.01251  25.78294  34.13497  1     1071
siesta:     35.25028  28.59860  34.40131  1     1072
siesta:     37.74046  27.90464  37.48648  2     1073
[...]
siesta:   1065   -0.034511    0.154043   -0.206245
siesta:   1066   -0.182925   -0.133685    0.336994
siesta:   1067    0.180900   -0.292025    0.368327
siesta:   1068   -0.418222    0.391261    0.500741
siesta:   1069    0.161647   -0.630292   -0.176438
siesta:   1070   -0.032741    0.135108   -0.499031
siesta:   1071    0.262374   -0.092950   -0.283616
siesta:   1072   -0.211202    0.629843   -0.492302
siesta:   1073    0.165618   -0.160079    0.077424
siesta:   1074   -0.135766   -0.293153    0.520866
siesta:   1075    0.433863    0.061228   -0.528979
siesta:   1076   -0.537871    0.067012    0.341208
siesta:   1077   -0.801590    0.080521    0.165737
siesta:   1078    0.025971   -0.030834    0.411417
siesta:   1079   -0.036579   -0.137502   -0.374763
siesta:   1080    0.382602    0.216900    0.256772
siesta:   1081   -0.206326   -0.012174   -0.809070
siesta:   1082    0.205966    0.168119    0.179374
siesta:   1083    0.271462    0.197746    0.367914
siesta:   1084    0.349820    0.087783   -0.151176
siesta:   1085   -0.087393   -0.066695   -0.187215
siesta:   1086   -0.281888   -0.150550   -0.635920
siesta:   1087   -0.214481   -0.403883    0.534864
siesta:   1088   -0.245106    0.178321    0.256747
siesta:   1089   -0.358815   -0.058361   -0.178599
siesta:   1090    0.153281    0.076370    0.656932
siesta:   1091    0.369812    0.037357    0.063987
siesta:   1092    0.801207    0.031314    0.407390
siesta:   1093   -0.230877    0.143098   -0.469759
siesta:   1094   -0.196964    0.070556   -0.113284
siesta:   1095    0.093304    0.092891   -0.097690
siesta:   1096   -0.537725    0.072029   -0.276256
siesta:   1097   -0.220302   -0.319166    0.136204
siesta:   1098   -0.348882   -0.522694    0.177411
siesta:   1099    0.417629    0.177299    0.172595
siesta:   1100   -0.026791    0.317793   -0.062197
siesta:   1101    0.119231    0.109382    0.196762
siesta:   1102    0.390973    0.531020   -0.348978
siesta:   1103   -0.328857   -0.597111   -0.182439
siesta:   1104   -0.316386   -0.402546   -0.846479
siesta:   1105   -0.167471   -0.336283    0.716624
siesta:   1106    0.243850   -0.039226   -0.051798
siesta:   1107    0.002080    0.277447    0.178113
siesta:   1108    0.222913    0.177285   -0.477664
siesta:   1109   -0.290007   -0.069707    0.041640
siesta:   1110   -0.252307    0.018111    0.603731
siesta:   1111    0.143808    0.446866   -0.279094
siesta:   1112    0.070352   -0.604510   -0.126631
siesta:   1113    0.241451   -0.348039   -0.530058
siesta:   1114    0.039192   -0.494517    0.382870
siesta:   1115    0.073349    0.667159   -0.155291
siesta:   1116   -0.242525    0.284521    0.727430
siesta:   1117    0.139497    0.569298   -0.899205
siesta:   1118    0.066504   -0.036432    0.077014
siesta:   1119   -0.042091   -0.404957    0.314112
siesta:   1120   -0.188144    0.022001    0.171037
siesta:   1121    0.164928   -0.363899   -0.248557
siesta:   1122    0.709054    0.011288   -0.335621
siesta:   1123   -0.344263   -0.454700    0.198266
siesta:   1124   -0.162779    0.225821    0.127959
siesta:   1125   -0.302290    0.509442    0.129350
siesta:   1126   -0.092496    0.048485    0.004139
siesta:   1127    0.053967   -0.132963   -0.347428
siesta:   1128   -0.084137    0.782298   -0.171899
siesta:   1129    0.228421   -0.700610   -0.064152
siesta:   1130    0.050078    0.123714    0.319443
siesta:   1131   -0.144144   -0.188314    0.191785
siesta:   1132   -0.069435    0.366114    0.571665
siesta:   1133    0.138866   -0.046657   -0.133398
siesta:   1134    0.190862   -0.264028   -0.554018
siesta:   1135   -0.151539    0.180672    0.657475
siesta:   1136    0.053534    0.010315   -0.091744
siesta:   1137    0.222284    0.092629   -0.175525
siesta:   1138   -0.091809   -0.139576    0.188136
siesta:   1139    0.045870    0.344262   -0.229044
siesta:   1140    0.441070    0.376174   -0.362192
siesta:   1141   -0.766476   -0.156412   -0.099871
siesta:   1142   -0.000957   -0.262773    0.315725
siesta:   1143   -0.159372   -0.503319    0.676232
siesta:   1144    0.119200    0.120639    0.161766
siesta:   1145    0.123254    0.444938   -0.361544
siesta:   1146    0.304328   -0.062791    0.429861
siesta:   1147    0.107199    0.504593   -0.644217
siesta:   1148   -0.088413   -0.277882   -0.164998
siesta:   1149   -0.271806   -0.499971   -0.394845
siesta:   1150   -0.192737   -0.124543    0.120684
siesta:   1151    0.109628   -0.023395    0.209241
siesta:   1152   -0.502594   -0.566991   -0.006254
siesta:   1153    0.338260    0.535246    0.159684
siesta:   1154   -0.014778    0.099979   -0.091161
siesta:   1155   -0.194143    0.077486    0.218384
siesta:   1156    0.264891    0.034569   -0.214348
siesta:   1157   -0.020736    0.055800   -0.111752
siesta:   1158   -0.095573    0.535350   -0.260389
siesta:   1159    0.150104   -0.466425    0.039555
siesta:   1160    0.003400   -0.420976    0.102857
siesta:   1161    0.120490   -0.008994   -0.299463
siesta:   1162   -0.087394   -0.490754    0.431893
siesta:   1163   -0.045375    0.081407    0.281878
siesta:   1164    0.080412    0.248974    0.684576
siesta:   1165   -0.147542    0.103082   -0.465084
siesta:   1166   -0.323203   -0.192995   -0.008529
siesta:   1167   -0.144297    0.322264   -0.000651
siesta:   1168   -0.051598   -0.102124   -0.348701
siesta:   1169    0.156761   -0.045850    0.249752
siesta:   1170    0.087241   -0.433862   -0.361700
siesta:   1171    0.119683    0.261059    0.648413
siesta:   1172   -0.031142   -0.014253   -0.226151
siesta:   1173   -0.093911   -0.148855   -0.527437
siesta:   1174    0.214963   -0.004449   -0.141298
siesta:   1175    0.065637    0.187727    0.239908
siesta:   1176   -0.032064   -0.224493    0.531894
siesta:   1177   -0.010697    0.697345   -0.007910
siesta:   1178    0.079613    0.163957   -0.386911
siesta:   1179   -0.004730    0.073576    0.029635
siesta:   1180    0.048704    0.196259   -0.605837
siesta:   1181    0.123702   -0.029726    0.133922
siesta:   1182    0.065475   -0.608852   -0.057239
siesta:   1183   -0.190309    0.277072    0.461828
siesta:   1184    0.146817   -0.084875   -0.272235
siesta:   1185    0.272308   -0.378522   -0.456002
siesta:   1186    0.046630    0.093878    0.080703
siesta:   1187   -0.222656    0.406680    0.184584
siesta:   1188   -0.563256   -0.261978   -0.132799
siesta:   1189    0.102616    0.647389    0.433496
siesta:   1190    0.271673   -0.143806    0.095828
siesta:   1191    0.592638    0.058066   -0.065936
siesta:   1192   -0.041395   -0.164481   -0.144023
siesta:   1193   -0.040024   -0.010770   -0.095375
siesta:   1194    0.686926   -0.180450   -0.222920
siesta:   1195   -0.629264    0.162751    0.369647
siesta:   1196    0.052678    0.110946    0.057742
siesta:   1197   -0.227479    0.093303   -0.290444
siesta:   1198    0.020606    0.104296    0.281940
siesta:   1199    0.503155   -0.176272    0.242773
siesta:   1200   -0.200679    0.381732    0.007959
siesta:   1201    0.364001   -0.563820    0.571584
siesta:   1202   -0.006854   -0.070551   -0.512808
siesta:   1203   -0.138670   -0.347062   -0.656829
siesta:   1204   -0.060324    0.273643   -0.125537
siesta:   1205   -0.065611   -0.513571    0.326147
siesta:   1206    0.275567    0.639575    0.305476
siesta:   1207   -0.028174   -1.005043    0.109647
siesta:   1208   -0.241251    0.390331   -0.049611
siesta:   1209   -0.101221    0.688420   -0.395561
siesta:   1210    0.029029    0.040961    0.107029
siesta:   1211    0.006570   -0.247617    0.339055
siesta:   1212    0.280372   -0.425844    0.529509
siesta:   1213   -0.368705   -0.030884   -0.199402
siesta:   1214    0.111793    0.069909    0.070939
siesta:   1215   -0.021809   -0.250139   -0.003554
siesta:   1216   -0.008649    0.260427   -0.123843
siesta:   1217    0.132664    0.335948   -0.111194
siesta:   1218   -0.011406    0.030543   -0.657475
siesta:   1219   -0.092119    0.613240    0.158848
siesta:   1220   -0.056804   -0.495468    0.187843
siesta:   1221    0.062375   -0.023750    0.316537
siesta:   1222    0.118961   -0.679390    0.077628
siesta:   1223   -0.151519   -0.014281   -0.054490
siesta:   1224   -0.107775    0.562542   -0.396669
siesta:   1225    0.195517   -0.394957    0.359404
siesta:   1226    0.161635   -0.027814   -0.398664
siesta:   1227   -0.189407    0.257729   -0.416042
siesta:   1228    0.066810    0.440264    0.105990
siesta:   1229   -0.372216   -0.496535    0.137895
siesta:   1230    0.359935   -0.247156    0.574486
siesta:   1231   -0.808530   -0.471701   -0.223234
siesta:   1232    0.118523    0.164028    0.068637
siesta:   1233    0.114528    0.167579   -0.359239
siesta:   1234    0.332538   -0.021050    0.261106
siesta:   1235   -0.102739    0.195467   -0.325366
siesta:   1236   -0.764844    0.103970   -0.249282
siesta:   1237    0.870094    0.258426   -0.089777
siesta:   1238   -0.334834   -0.080740    0.179140
siesta:   1239   -0.161367   -0.359652    0.539241
siesta:   1240   -0.446051    0.027283   -0.173221
siesta:   1241    0.514498    0.227976    0.300585
siesta:   1242    0.886880    0.297633    0.329458
siesta:   1243   -0.578527   -0.175128    0.183137
siesta:   1244   -0.501964   -0.206281   -0.209611
siesta:   1245   -0.156667   -0.240452    0.009660
siesta:   1246   -0.494208    0.044545   -0.466861
siesta:   1247   -0.184481    0.155512    0.278302
siesta:   1248    0.289792   -0.140548    0.209799
siesta:   1249   -0.014674    0.325535   -0.276829
siesta:   1250    0.565147    0.233741   -0.069433
siesta:   1251   -0.057452    0.038136   -0.228191
siesta:   1252   -0.085038   -0.349947    0.276175
siesta:   1253    0.040518   -0.101916   -0.139766
siesta:   1254   -0.286158   -0.215070    0.190075
siesta:   1255    0.315348    0.325211    0.127616
siesta:   1256    0.035644   -0.217128    0.480630
siesta:   1257    0.062922    0.646438    0.306752
siesta:   1258   -0.349154    0.036448   -0.325630
siesta:   1259    0.109021    0.624439    0.089371
siesta:   1260    0.253571   -0.157053   -0.411792
siesta:   1261    0.184981    0.078600   -0.164251
siesta:   1262    0.029411   -0.258649   -0.722236
siesta:   1263    0.724895    0.029119   -0.144940
siesta:   1264    0.201655    0.119516   -0.092845
siesta:   1265    0.291277    0.041811    0.220173
siesta:   1266    0.136924   -0.167569   -0.038109
siesta:   1267   -0.181660   -0.505692    0.168783
siesta:   1268    0.357051   -0.011243    0.651333
siesta:   1269   -1.116323    0.153307    0.408882
siesta:   1270   -0.324932    0.256000   -0.023108
siesta:   1271   -0.071533   -0.319142    0.020729
siesta:   1272   -0.005072   -0.632388   -0.298644
siesta:   1273    0.057882   -0.227270   -0.054465
siesta:   1274    0.486580   -0.379126   -0.029720
siesta:   1275   -0.061614   -0.222163   -0.113101
siesta:   1276    0.001532    0.051336   -0.049114
siesta:   1277    0.030461    0.004752    0.200930
siesta:   1278    0.164380    0.761561   -0.423999
siesta:   1279    0.146785   -0.043734    0.192291
siesta:   1280    0.278150    0.221993    0.039117
siesta:   1281   -0.591774   -0.421085    0.042020
siesta:   1282    0.439705   -0.430401    0.103920
siesta: ----------------------------------------
siesta:    Tot    0.070553    0.035691   -0.083333

siesta: Stress tensor (static) (eV/Ang**3):
siesta:    -0.018346    0.000740    0.000777
siesta:     0.000740   -0.018080    0.001285
siesta:     0.000777    0.001285   -0.021382

siesta: Cell volume =      13041.289483 Ang**3

siesta: Pressure (static):
siesta:                Solid            Molecule  Units
siesta:           0.00020987          0.00024224  Ry/Bohr**3
siesta:           0.01926911          0.02224130  eV/Ang**3
siesta:          30.87285364         35.63486859  kBar
(Free)E+ p_basis*V_orbitals  =     -374516.279925
(Free)Eharris+ p_basis*V_orbitals  =     -374516.271593

* Maximum dynamic memory allocated : Node    0 =   428 MB
* Maximum dynamic memory allocated : Node    1 =   426 MB
* Maximum dynamic memory allocated : Node    2 =   423 MB
* Maximum dynamic memory allocated : Node    3 =   426 MB
* Maximum dynamic memory allocated : Node    4 =   427 MB
* Maximum dynamic memory allocated : Node    5 =   429 MB
* Maximum dynamic memory allocated : Node    6 =   424 MB
* Maximum dynamic memory allocated : Node    7 =   423 MB
* Maximum dynamic memory allocated : Node    8 =   428 MB
* Maximum dynamic memory allocated : Node    9 =   427 MB
* Maximum dynamic memory allocated : Node   10 =   423 MB
* Maximum dynamic memory allocated : Node   11 =   428 MB
* Maximum dynamic memory allocated : Node   12 =   427 MB
* Maximum dynamic memory allocated : Node   13 =   430 MB
* Maximum dynamic memory allocated : Node   14 =   426 MB
* Maximum dynamic memory allocated : Node   15 =   423 MB
* Maximum dynamic memory allocated : Node   16 =   422 MB
* Maximum dynamic memory allocated : Node   17 =   422 MB
* Maximum dynamic memory allocated : Node   18 =   427 MB
* Maximum dynamic memory allocated : Node   19 =   431 MB
* Maximum dynamic memory allocated : Node   20 =   424 MB
* Maximum dynamic memory allocated : Node   21 =   427 MB
* Maximum dynamic memory allocated : Node   22 =   426 MB
* Maximum dynamic memory allocated : Node   23 =   427 MB
* Maximum dynamic memory allocated : Node   24 =   419 MB
* Maximum dynamic memory allocated : Node   25 =   419 MB
* Maximum dynamic memory allocated : Node   26 =   433 MB
* Maximum dynamic memory allocated : Node   27 =   435 MB
* Maximum dynamic memory allocated : Node   28 =   426 MB
* Maximum dynamic memory allocated : Node   29 =   425 MB
* Maximum dynamic memory allocated : Node   30 =   428 MB
* Maximum dynamic memory allocated : Node   31 =   427 MB
* Maximum dynamic memory allocated : Node   32 =   427 MB
* Maximum dynamic memory allocated : Node   33 =   419 MB
* Maximum dynamic memory allocated : Node   34 =   424 MB
* Maximum dynamic memory allocated : Node   35 =   425 MB
* Maximum dynamic memory allocated : Node   36 =   423 MB
* Maximum dynamic memory allocated : Node   37 =   423 MB
* Maximum dynamic memory allocated : Node   38 =   423 MB
* Maximum dynamic memory allocated : Node   39 =   424 MB
* Maximum dynamic memory allocated : Node   40 =   431 MB
* Maximum dynamic memory allocated : Node   41 =   426 MB
* Maximum dynamic memory allocated : Node   42 =   425 MB
* Maximum dynamic memory allocated : Node   43 =   421 MB
* Maximum dynamic memory allocated : Node   44 =   418 MB
* Maximum dynamic memory allocated : Node   45 =   423 MB
* Maximum dynamic memory allocated : Node   46 =   408 MB
* Maximum dynamic memory allocated : Node   47 =   408 MB
* Maximum dynamic memory allocated : Node   48 =   410 MB
* Maximum dynamic memory allocated : Node   49 =   406 MB
* Maximum dynamic memory allocated : Node   50 =   404 MB
* Maximum dynamic memory allocated : Node   51 =   403 MB
* Maximum dynamic memory allocated : Node   52 =   404 MB
* Maximum dynamic memory allocated : Node   53 =   407 MB
* Maximum dynamic memory allocated : Node   54 =   406 MB
* Maximum dynamic memory allocated : Node   55 =   405 MB
* Maximum dynamic memory allocated : Node   56 =   409 MB
* Maximum dynamic memory allocated : Node   57 =   405 MB
* Maximum dynamic memory allocated : Node   58 =   404 MB
* Maximum dynamic memory allocated : Node   59 =   403 MB
* Maximum dynamic memory allocated : Node   60 =   410 MB
* Maximum dynamic memory allocated : Node   61 =   410 MB
* Maximum dynamic memory allocated : Node   62 =   405 MB
* Maximum dynamic memory allocated : Node   63 =   407 MB

* Maximum memory occured during matrixMtoO                    

timer: CPU execution times:
timer:  Routine       Calls   Time/call    Tot.time        %
timer:  siesta            1  462564.958  462564.958   100.00
timer:  Setup             1     344.163     344.163     0.07
timer:  bands             1       0.023       0.023     0.00
timer:  writewave         1       0.036       0.036     0.00
timer:  KSV_init          1       0.007       0.007     0.00
timer:  IterMD            2  231091.849  462183.698    99.92
timer:  hsparse           2     108.311     216.623     0.05
timer:  overlap           2      65.948     131.895     0.03
timer:  IterSCF          33   13436.117  443391.867    95.86
timer:  kinefsm           4      40.718     162.870     0.04
timer:  nlefsm            4     480.251    1921.005     0.42
timer:  DHSCF            35    6006.798  210237.925    45.45
timer:  DHSCF1            1      66.108      66.108     0.01
timer:  DHSCF2            2    3477.141    6954.283     1.50
timer:  REORD           214       0.090      19.269     0.00
timer:  POISON           37     256.953    9507.255     2.06
timer:  DHSCF3           35    5671.684  198508.947    42.91
timer:  rhoofd           35    2333.151   81660.279    17.65
timer:  cellXC           35      71.728    2510.479     0.54
timer:  vmat             35    2656.760   92986.585    20.10
timer:  MolMec            4       0.107       0.429     0.00
timer:  diagon           33    7371.861  243271.412    52.59
timer:  r-eigvec         33    6743.179  222524.917    48.11
timer:  r-buildHS        33       1.116      36.812     0.01
timer:  rdiag            33    6742.063  222488.086    48.10
timer:  rdiag1           33     383.567   12657.712     2.74
timer:  rdiag2           33    1410.093   46533.068    10.06
timer:  rdiag3           33    4189.686  138259.636    29.89
timer:  rdiag4           33     406.985   13430.491     2.90
timer:  r-buildD         33     627.602   20710.880     4.48
timer:  DHSCF4            2    2349.437    4698.873     1.02
timer:  dfscf             2    2169.492    4338.983     0.94
timer:  overfsm           2      15.638      31.276     0.01
timer:  optical           1      35.009      35.009     0.01
  

elaps: ELAPSED times:
elaps:  Routine       Calls   Time/call    Tot.time        %
elaps:  siesta            1    7254.395    7254.395   100.00
elaps:  Setup             1       5.343       5.343     0.07
elaps:  bands             1       0.000       0.000     0.00
elaps:  writewave         1       0.001       0.001     0.00
elaps:  KSV_init          1       0.000       0.000     0.00
elaps:  IterMD            2    3624.219    7248.438    99.92
elaps:  hsparse           2       1.712       3.425     0.05
elaps:  overlap           2       0.918       1.835     0.03
elaps:  IterSCF          33     210.729    6954.045    95.86
elaps:  kinefsm           4       0.582       2.328     0.03
elaps:  nlefsm            4       7.223      28.891     0.40
elaps:  DHSCF            35      94.133    3294.672    45.42
elaps:  DHSCF1            1       1.014       1.014     0.01
elaps:  DHSCF2            2      54.457     108.915     1.50
elaps:  REORD           214       0.001       0.285     0.00
elaps:  POISON           37       3.983     147.368     2.03
elaps:  DHSCF3           35      88.852    3109.815    42.87
elaps:  rhoofd           35      37.761    1321.650    18.22
elaps:  cellXC           35       1.126      39.404     0.54
elaps:  vmat             35      41.630    1457.034    20.08
elaps:  MolMec            4       0.002       0.007     0.00
elaps:  diagon           33     115.726    3818.944    52.64
elaps:  r-eigvec         33     105.397    3478.099    47.94
elaps:  r-buildHS        33       0.012       0.384     0.01
elaps:  rdiag            33     105.385    3477.715    47.94
elaps:  rdiag1           33       6.259     206.561     2.85
elaps:  rdiag2           33      22.188     732.214    10.09
elaps:  rdiag3           33      65.734    2169.233    29.90
elaps:  rdiag4           33       5.891     194.392     2.68
elaps:  r-buildD         33      10.313     340.323     4.69
elaps:  DHSCF4            2      37.405      74.811     1.03
elaps:  dfscf             2      34.626      69.252     0.95
elaps:  overfsm           2       0.243       0.487     0.01
elaps:  optical           1       0.000       0.000     0.00
  
>> End of run:  11-SEP-2014   3:36:55
