#            ENERGY              s1              s2              total
        -30.30000000        0.00000000        0.00000000        0.00000000
        -30.23933934        0.00000263        0.00000226        0.00000489
        -30.17867868        0.00007438        0.00006562        0.00014000
        -30.11801802        0.00097127        0.00088165        0.00185292
        -30.05735736        0.00635408        0.00593193        0.01228601
        -29.99669670        0.02145111        0.02057503        0.04202613
        -29.93603604        0.04094163        0.04015579        0.08109742
        -29.87537538        0.05772422        0.05700463        0.11472885
        -29.81471471        0.08193750        0.08053940        0.16247690
        -29.75405405        0.10642398        0.10480149        0.21122547
        -29.69339339        0.11717878        0.11599055        0.23316933
        -29.63273273        0.13119247        0.13011001        0.26130248
        -29.57207207        0.15671022        0.15597845        0.31268867
        -29.51141141        0.16706224        0.16745540        0.33451764
        -29.45075075        0.15538389        0.15644210        0.31182599
        -29.39009009        0.12943304        0.13093634        0.26036938
        -29.32942943        0.09992235        0.10122174        0.20114409
        -29.26876877        0.07858830        0.07955250        0.15814080
        -29.20810811        0.05920921        0.06016348        0.11937268
        -29.14744745        0.04025093        0.04098002        0.08123095
        -29.08678679        0.02552728        0.02608875        0.05161603
        -29.02612613        0.01322592        0.01377215        0.02699806
        -28.96546547        0.00446876        0.00479281        0.00926157
        -28.90480480        0.00085500        0.00094731        0.00180230
        -28.84414414        0.00008693        0.00009940        0.00018633
        -28.78348348        0.00000485        0.00000565        0.00001050
        -28.72282282        0.00000054        0.00000054        0.00000108
        -28.66216216        0.00000047        0.00000048        0.00000096
        -28.60150150        0.00000022        0.00000023        0.00000045
        -28.54084084        0.00000005        0.00000005        0.00000010
        -28.48018018        0.00000001        0.00000001        0.00000001
        -28.41951952        0.00000000        0.00000000        0.00000000
        -28.35885886        0.00000000        0.00000000        0.00000000
        -28.29819820        0.00000000        0.00000000        0.00000000
        -28.23753754        0.00000000        0.00000000        0.00000000
        -28.17687688        0.00000000        0.00000000        0.00000000
        -28.11621622        0.00000000        0.00000000        0.00000000
        -28.05555556        0.00000000        0.00000000        0.00000000
        -27.99489489        0.00000000        0.00000000        0.00000000
        -27.93423423        0.00000000        0.00000000        0.00000000
        -27.87357357        0.00000000        0.00000000        0.00000000
        -27.81291291        0.00000000        0.00000000        0.00000000
        -27.75225225        0.00000000        0.00000000        0.00000000
        -27.69159159        0.00000000        0.00000000        0.00000000
        -27.63093093        0.00000000        0.00000000        0.00000000
        -27.57027027        0.00000000        0.00000000        0.00000000
        -27.50960961        0.00000000        0.00000000        0.00000000
        -27.44894895        0.00000000        0.00000000        0.00000000
        -27.38828829        0.00000000        0.00000000        0.00000000
        -27.32762763        0.00000000        0.00000000        0.00000000
        -27.26696697        0.00000000        0.00000000        0.00000000
        -27.20630631        0.00000000        0.00000000        0.00000000
        -27.14564565        0.00000000        0.00000000        0.00000000
        -27.08498498        0.00000000        0.00000000        0.00000000
        -27.02432432        0.00000000        0.00000000        0.00000000
        -26.96366366        0.00000000        0.00000000        0.00000000
        -26.90300300        0.00000000        0.00000000        0.00000000
        -26.84234234        0.00000000        0.00000000        0.00000000
        -26.78168168        0.00000000        0.00000000        0.00000000
        -26.72102102        0.00000000        0.00000000        0.00000000
        -26.66036036        0.00000000        0.00000000        0.00000000
        -26.59969970        0.00000000        0.00000000        0.00000000
        -26.53903904        0.00000000        0.00000000        0.00000000
        -26.47837838        0.00000000        0.00000000        0.00000000
        -26.41771772        0.00000000        0.00000000        0.00000000
        -26.35705706        0.00000000        0.00000000        0.00000000
        -26.29639640        0.00000000        0.00000000        0.00000000
        -26.23573574        0.00000000        0.00000000        0.00000000
        -26.17507508        0.00000000        0.00000000        0.00000000
        -26.11441441        0.00000000        0.00000000        0.00000000
        -26.05375375        0.00000000        0.00000000        0.00000000
        -25.99309309        0.00000000        0.00000000        0.00000000
        -25.93243243        0.00000000        0.00000000        0.00000000
        -25.87177177        0.00000000        0.00000000        0.00000000
        -25.81111111        0.00000000        0.00000000        0.00000000
        -25.75045045        0.00000000        0.00000000        0.00000000
        -25.68978979        0.00000000        0.00000000        0.00000000
        -25.62912913        0.00000000        0.00000000        0.00000000
        -25.56846847        0.00000000        0.00000000        0.00000000
        -25.50780781        0.00000000        0.00000000        0.00000000
        -25.44714715        0.00000000        0.00000000        0.00000000
        -25.38648649        0.00000000        0.00000000        0.00000000
        -25.32582583        0.00000000        0.00000000        0.00000000
        -25.26516517        0.00000000        0.00000000        0.00000000
        -25.20450450        0.00000000        0.00000000        0.00000000
        -25.14384384        0.00000000        0.00000000        0.00000000
        -25.08318318        0.00000000        0.00000000        0.00000000
        -25.02252252        0.00000000        0.00000000        0.00000000
        -24.96186186        0.00000000        0.00000000        0.00000000
        -24.90120120        0.00000000        0.00000000        0.00000000
        -24.84054054        0.00000000        0.00000000        0.00000000
        -24.77987988        0.00000000        0.00000000        0.00000000
        -24.71921922        0.00000000        0.00000000        0.00000000
        -24.65855856        0.00000000        0.00000000        0.00000000
        -24.59789790        0.00000000        0.00000000        0.00000000
        -24.53723724        0.00000000        0.00000000        0.00000000
        -24.47657658        0.00000000        0.00000000        0.00000000
        -24.41591592        0.00000000        0.00000000        0.00000000
        -24.35525526        0.00000000        0.00000000        0.00000000
        -24.29459459        0.00000000        0.00000000        0.00000000
        -24.23393393        0.00000000        0.00000000        0.00000000
        -24.17327327        0.00000000        0.00000000        0.00000000
        -24.11261261        0.00000000        0.00000000        0.00000000
        -24.05195195        0.00000000        0.00000000        0.00000000
        -23.99129129        0.00000000        0.00000000        0.00000000
        -23.93063063        0.00000000        0.00000000        0.00000000
        -23.86996997        0.00000000        0.00000000        0.00000000
        -23.80930931        0.00000000        0.00000000        0.00000000
        -23.74864865        0.00000000        0.00000000        0.00000000
        -23.68798799        0.00000000        0.00000000        0.00000000
        -23.62732733        0.00000000        0.00000000        0.00000000
        -23.56666667        0.00000000        0.00000000        0.00000000
        -23.50600601        0.00000000        0.00000000        0.00000000
        -23.44534535        0.00000000        0.00000000        0.00000000
        -23.38468468        0.00000000        0.00000000        0.00000000
        -23.32402402        0.00000000        0.00000000        0.00000000
        -23.26336336        0.00000000        0.00000000        0.00000000
        -23.20270270        0.00000000        0.00000000        0.00000000
        -23.14204204        0.00000000        0.00000000        0.00000000
        -23.08138138        0.00000000        0.00000000        0.00000000
        -23.02072072        0.00000000        0.00000000        0.00000000
        -22.96006006        0.00000000        0.00000000        0.00000000
        -22.89939940        0.00000000        0.00000000        0.00000000
        -22.83873874        0.00000000        0.00000000        0.00000000
        -22.77807808        0.00000000        0.00000000        0.00000000
        -22.71741742        0.00000000        0.00000000        0.00000000
        -22.65675676        0.00000000        0.00000000        0.00000000
        -22.59609610        0.00000000        0.00000000        0.00000000
        -22.53543544        0.00000000        0.00000000        0.00000000
        -22.47477477        0.00000000        0.00000000        0.00000000
        -22.41411411        0.00000000        0.00000000        0.00000000
        -22.35345345        0.00000000        0.00000000        0.00000000
        -22.29279279        0.00000000        0.00000000        0.00000000
        -22.23213213        0.00000000        0.00000000        0.00000000
        -22.17147147        0.00000000        0.00000000        0.00000000
        -22.11081081        0.00000000        0.00000000        0.00000000
        -22.05015015        0.00000000        0.00000000        0.00000000
        -21.98948949        0.00000000        0.00000000        0.00000000
        -21.92882883        0.00000000        0.00000000        0.00000000
        -21.86816817        0.00000000        0.00000000        0.00000000
        -21.80750751        0.00000000        0.00000000        0.00000000
        -21.74684685        0.00000000        0.00000000        0.00000000
        -21.68618619        0.00000000        0.00000000        0.00000000
        -21.62552553        0.00000000        0.00000000        0.00000000
        -21.56486486        0.00000000        0.00000000        0.00000000
        -21.50420420        0.00000000        0.00000000        0.00000000
        -21.44354354        0.00000000        0.00000000        0.00000000
        -21.38288288        0.00000000        0.00000000        0.00000000
        -21.32222222        0.00000000        0.00000000        0.00000000
        -21.26156156        0.00000000        0.00000000        0.00000000
        -21.20090090        0.00000000        0.00000000        0.00000000
        -21.14024024        0.00000000        0.00000000        0.00000000
        -21.07957958        0.00000000        0.00000000        0.00000000
        -21.01891892        0.00000000        0.00000000        0.00000000
        -20.95825826        0.00000000        0.00000000        0.00000000
        -20.89759760        0.00000000        0.00000000        0.00000000
        -20.83693694        0.00000000        0.00000000        0.00000000
        -20.77627628        0.00000001        0.00000001        0.00000002
        -20.71561562        0.00000091        0.00000060        0.00000151
        -20.65495495        0.00001958        0.00001467        0.00003425
        -20.59429429        0.00021888        0.00017497        0.00039385
        -20.53363363        0.00126432        0.00108078        0.00234510
        -20.47297297        0.00381193        0.00347613        0.00728806
        -20.41231231        0.00654293        0.00625570        0.01279863
        -20.35165165        0.00896194        0.00851723        0.01747917
        -20.29099099        0.01475981        0.01370744        0.02846725
        -20.23033033        0.02316239        0.02210077        0.04526316
        -20.16966967        0.02696793        0.02669373        0.05366166
        -20.10900901        0.02580068        0.02577251        0.05157319
        -20.04834835        0.02549130        0.02519813        0.05068943
        -19.98768769        0.02598682        0.02571508        0.05170190
        -19.92702703        0.02532696        0.02511242        0.05043938
        -19.86636637        0.02486690        0.02456261        0.04942951
        -19.80570571        0.02454349        0.02428022        0.04882371
        -19.74504505        0.02317850        0.02302642        0.04620493
        -19.68438438        0.02161251        0.02145124        0.04306375
        -19.62372372        0.02066404        0.02046371        0.04112775
        -19.56306306        0.01987927        0.01967332        0.03955259
        -19.50240240        0.01927980        0.01900809        0.03828788
        -19.44174174        0.01920171        0.01888399        0.03808570
        -19.38108108        0.01915830        0.01888888        0.03804718
        -19.32042042        0.01847958        0.01831250        0.03679208
        -19.25975976        0.01744164        0.01728613        0.03472778
        -19.19909910        0.01715350        0.01692024        0.03407373
        -19.13843844        0.01774459        0.01745634        0.03520093
        -19.07777778        0.01835982        0.01811051        0.03647034
        -19.01711712        0.01821735        0.01803826        0.03625561
        -18.95645646        0.01808652        0.01786215        0.03594867
        -18.89579580        0.01872573        0.01845442        0.03718015
        -18.83513514        0.01897703        0.01879436        0.03777139
        -18.77447447        0.01815748        0.01803675        0.03619423
        -18.71381381        0.01758588        0.01740192        0.03498781
        -18.65315315        0.01795780        0.01773321        0.03569101
        -18.59249249        0.01838185        0.01820711        0.03658896
        -18.53183183        0.01848732        0.01834980        0.03683712
        -18.47117117        0.01905868        0.01886682        0.03792550
        -18.41051051        0.02028413        0.02003603        0.04032016
        -18.34984985        0.02075622        0.02053985        0.04129607
        -18.28918919        0.02108759        0.02085152        0.04193911
        -18.22852853        0.02350577        0.02315491        0.04666067
        -18.16786787        0.02706694        0.02663462        0.05370156
        -18.10720721        0.02902862        0.02871613        0.05774474
        -18.04654655        0.02715435        0.02698686        0.05414121
        -17.98588589        0.02311229        0.02295283        0.04606511
        -17.92522523        0.01754806        0.01757595        0.03512401
        -17.86456456        0.00942890        0.00965887        0.01908777
        -17.80390390        0.00288548        0.00304309        0.00592857
        -17.74324324        0.00045490        0.00049486        0.00094976
        -17.68258258        0.00006541        0.00007126        0.00013667
        -17.62192192        0.00018874        0.00019279        0.00038153
        -17.56126126        0.00055161        0.00054652        0.00109814
        -17.50060060        0.00077764        0.00074804        0.00152569
        -17.43993994        0.00052518        0.00049049        0.00101567
        -17.37927928        0.00017010        0.00015407        0.00032417
        -17.31861862        0.00003268        0.00002568        0.00005837
        -17.25795796        0.00010399        0.00005150        0.00015548
        -17.19729730        0.00081037        0.00048184        0.00129221
        -17.13663664        0.00333784        0.00237273        0.00571057
        -17.07597598        0.00815886        0.00657726        0.01473612
        -17.01531532        0.01577289        0.01310261        0.02887550
        -16.95465465        0.03011633        0.02508156        0.05519789
        -16.89399399        0.05048396        0.04443620        0.09492016
        -16.83333333        0.06701535        0.06318701        0.13020236
        -16.77267267        0.07078900        0.07134296        0.14213196
        -16.71201201        0.06096860        0.06485061        0.12581920
        -16.65135135        0.04912638        0.05204080        0.10116718
        -16.59069069        0.04543902        0.04584740        0.09128642
        -16.53003003        0.04684411        0.04636195        0.09320607
        -16.46936937        0.04995647        0.04909451        0.09905099
        -16.40870871        0.05337943        0.05276256        0.10614198
        -16.34804805        0.05347754        0.05385013        0.10732767
        -16.28738739        0.05140792        0.05183082        0.10323873
        -16.22672673        0.05233558        0.05171004        0.10404562
        -16.16606607        0.05591547        0.05504815        0.11096362
        -16.10540541        0.05882933        0.05795801        0.11678734
        -16.04474474        0.06541396        0.06328248        0.12869644
        -15.98408408        0.07280587        0.07154494        0.14435081
        -15.92342342        0.07016852        0.07134737        0.14151590
        -15.86276276        0.06602061        0.06594836        0.13196897
        -15.80210210        0.07172720        0.06963591        0.14136311
        -15.74144144        0.07673903        0.07596894        0.15270797
        -15.68078078        0.07565482        0.07561966        0.15127448
        -15.62012012        0.08056592        0.07797884        0.15854476
        -15.55945946        0.09805733        0.09305524        0.19111257
        -15.49879880        0.11701077        0.11276498        0.22977575
        -15.43813814        0.13239355        0.12820962        0.26060317
        -15.37747748        0.15239177        0.14648674        0.29887852
        -15.31681682        0.17940130        0.17196484        0.35136615
        -15.25615616        0.20640365        0.20038446        0.40678810
        -15.19549550        0.21832066        0.21637017        0.43469083
        -15.13483483        0.22288066        0.22050893        0.44338959
        -15.07417417        0.23853639        0.23241115        0.47094754
        -15.01351351        0.26265982        0.25542233        0.51808215
        -14.95285285        0.27402962        0.27214258        0.54617220
        -14.89219219        0.26031731        0.26407098        0.52438828
        -14.83153153        0.23968970        0.24280507        0.48249477
        -14.77087087        0.22105326        0.22441194        0.44546520
        -14.71021021        0.17703870        0.18882221        0.36586091
        -14.64954955        0.10309334        0.11893969        0.22203303
        -14.58888889        0.04664455        0.05527956        0.10192411
        -14.52822823        0.02503257        0.02761197        0.05264454
        -14.46756757        0.01518844        0.01715471        0.03234314
        -14.40690691        0.00617781        0.00785706        0.01403487
        -14.34624625        0.00138878        0.00201693        0.00340571
        -14.28558559        0.00017499        0.00028501        0.00046001
        -14.22492492        0.00001446        0.00002353        0.00003799
        -14.16426426        0.00005122        0.00003044        0.00008166
        -14.10360360        0.00091889        0.00059678        0.00151568
        -14.04294294        0.00809874        0.00590156        0.01400030
        -13.98228228        0.03630712        0.02946632        0.06577344
        -13.92162162        0.08868971        0.07895296        0.16764267
        -13.86096096        0.13745671        0.12976325        0.26721996
        -13.80030030        0.18314723        0.17270199        0.35584922
        -13.73963964        0.26482070        0.24650068        0.51132138
        -13.67897898        0.35212290        0.33791058        0.69003347
        -13.61831832        0.38268858        0.37923696        0.76192554
        -13.55765766        0.38775001        0.38348427        0.77123428
        -13.49699700        0.41978747        0.41023278        0.83002026
        -13.43633634        0.45210695        0.44684456        0.89895151
        -13.37567568        0.44231459        0.44543502        0.88774961
        -13.31501502        0.39654688        0.40353605        0.80008293
        -13.25435435        0.35011087        0.35394802        0.70405889
        -13.19369369        0.33138787        0.33018793        0.66157579
        -13.13303303        0.33488980        0.33212957        0.66701937
        -13.07237237        0.33964341        0.33809149        0.67773490
        -13.01171171        0.34090949        0.33883532        0.67974481
        -12.95105105        0.34981028        0.34671025        0.69652054
        -12.89039039        0.34395400        0.34615483        0.69010883
        -12.82972973        0.30937313        0.31463338        0.62400651
        -12.76906907        0.28367430        0.28462388        0.56829818
        -12.70840841        0.27552400        0.27610065        0.55162465
        -12.64774775        0.25429600        0.25900727        0.51330328
        -12.58708709        0.22252997        0.22735069        0.44988066
        -12.52642643        0.20129606        0.20313974        0.40443580
        -12.46576577        0.18999791        0.19118547        0.38118337
        -12.40510511        0.16803413        0.17245594        0.34049007
        -12.34444444        0.12999709        0.13689671        0.26689380
        -12.28378378        0.08801918        0.09489322        0.18291240
        -12.22312312        0.05832634        0.06117409        0.11950043
        -12.16246246        0.05598902        0.05348561        0.10947463
        -12.10180180        0.07106993        0.06712174        0.13819167
        -12.04114114        0.09486817        0.08808416        0.18295233
        -11.98048048        0.14258307        0.12787475        0.27045783
        -11.91981982        0.21228130        0.19310440        0.40538570
        -11.85915916        0.27181089        0.25664561        0.52845650
        -11.79849850        0.30410435        0.29601849        0.60012283
        -11.73783784        0.32164296        0.31649788        0.63814084
        -11.67717718        0.34650338        0.34032100        0.68682437
        -11.61651652        0.34938732        0.35204473        0.70143206
        -11.55585586        0.29823138        0.30892726        0.60715865
        -11.49519520        0.25823826        0.25898600        0.51722426
        -11.43453453        0.27512464        0.26489981        0.54002445
        -11.37387387        0.31969021        0.30551141        0.62520162
        -11.31321321        0.37160339        0.35679745        0.72840084
        -11.25255255        0.40039949        0.39305985        0.79345934
        -11.19189189        0.38566454        0.38745278        0.77311732
        -11.13123123        0.34141510        0.34899023        0.69040533
        -11.07057057        0.29188654        0.29858851        0.59047505
        -11.00990991        0.27006569        0.26895507        0.53902075
        -10.94924925        0.27746014        0.27385997        0.55132011
        -10.88858859        0.26641668        0.27164374        0.53806042
        -10.82792793        0.22470067        0.23359796        0.45829863
        -10.76726727        0.19973166        0.19791892        0.39765057
        -10.70660661        0.24517783        0.22268244        0.46786027
        -10.64594595        0.36796354        0.33116283        0.69912637
        -10.58528529        0.49710135        0.46516603        0.96226739
        -10.52462462        0.56960689        0.55230226        1.12190914
        -10.46396396        0.58132362        0.57859255        1.15991617
        -10.40330330        0.55621068        0.56003609        1.11624676
        -10.34264264        0.53790245        0.53544380        1.07334626
        -10.28198198        0.55663919        0.54146467        1.09810386
        -10.22132132        0.61473822        0.59082997        1.20556819
        -10.16066066        0.66612213        0.64932134        1.31544347
        -10.10000000        0.66461442        0.66374479        1.32835922
        -10.03933934        0.62601119        0.63209177        1.25810296
         -9.97867868        0.61598143        0.61504751        1.23102893
         -9.91801802        0.69691925        0.68087079        1.37779005
         -9.85735736        0.89467290        0.86297003        1.75764293
         -9.79669670        1.08971852        1.06628737        2.15600589
         -9.73603604        1.11378740        1.11358975        2.22737716
         -9.67537538        0.97494102        0.98789142        1.96283244
         -9.61471471        0.80761569        0.81530323        1.62291892
         -9.55405405        0.77615899        0.75912913        1.53528812
         -9.49339339        0.91749937        0.87871946        1.79621883
         -9.43273273        1.08162253        1.04449128        2.12611380
         -9.37207207        1.13702203        1.11152206        2.24854408
         -9.31141141        1.13629108        1.11178615        2.24807723
         -9.25075075        1.15785826        1.13133058        2.28918884
         -9.19009009        1.18046768        1.15559886        2.33606655
         -9.12942943        1.20193140        1.17007995        2.37201135
         -9.06876877        1.27449900        1.22901856        2.50351756
         -9.00810811        1.36576570        1.32034381        2.68610950
         -8.94744745        1.40857363        1.37037347        2.77894710
         -8.88678679        1.44150278        1.39769926        2.83920204
         -8.82612613        1.53801542        1.48308832        3.02110374
         -8.76546547        1.67962553        1.62205230        3.30167783
         -8.70480480        1.77596003        1.73418686        3.51014689
         -8.64414414        1.71090742        1.70618571        3.41709313
         -8.58348348        1.50762429        1.51318786        3.02081215
         -8.52282282        1.35370193        1.30877836        2.66248029
         -8.46216216        1.38839587        1.20707088        2.59546676
         -8.40150150        1.83609856        1.28124182        3.11734038
         -8.34084084        3.07771604        1.97118670        5.04890274
         -8.28018018        4.28213689        3.55166059        7.83379748
         -8.21951952        3.63420076        4.40213092        8.03633168
         -8.15885886        1.87961805        3.12540201        5.00502005
         -8.09819820        0.98091703        1.50328996        2.48420699
         -8.03753754        1.25739256        1.15220116        2.40959372
         -7.97687688        2.44190284        2.01686043        4.45876327
         -7.91621622        3.63771200        3.32156641        6.95927841
         -7.85555556        3.69365511        3.74836515        7.44202026
         -7.79489489        3.29168624        3.39263467        6.68432091
         -7.73423423        3.67488542        3.58459632        7.25948174
         -7.67357357        5.13061750        4.76348001        9.89409751
         -7.61291291        8.81270400        7.61377321       16.42647722
         -7.55225225       16.38117035       13.78207167       30.16324202
         -7.49159159       25.92388722       22.82159355       48.74548077
         -7.43093093       32.73105551       31.52027866       64.25133416
         -7.37027027       36.69344070       37.83253718       74.52597788
         -7.30960961       39.95855008       41.82869965       81.78724973
         -7.24894895       39.15972472       40.87765851       80.03738324
         -7.18828829       34.60984065       35.61651016       70.22635082
         -7.12762763       30.18973203       30.98133014       61.17106217
         -7.06696697       24.26096823       25.44951054       49.71047877
         -7.00630631       22.22215204       22.72147567       44.94362771
         -6.94564565       32.95143492       32.17714339       65.12857832
         -6.88498498       46.04449510       45.23873763       91.28323274
         -6.82432432       47.69112536       48.23560538       95.92673074
         -6.76366366       40.42673370       42.01998881       82.44672250
         -6.70300300       38.53740691       39.44011024       77.97751715
         -6.64234234       46.55135292       46.48512663       93.03647955
         -6.58168168       51.94131752       51.96116967      103.90248719
         -6.52102102       51.52305884       51.66791963      103.19097847
         -6.46036036       54.13024524       54.60737998      108.73762522
         -6.39969970       60.16365624       61.00694207      121.17059831
         -6.33903904       67.63654719       67.93840885      135.57495604
         -6.27837838       73.10845228       72.96405207      146.07250435
         -6.21771772       69.56037524       69.36340284      138.92377809
         -6.15705706       59.17807816       58.64737108      117.82544925