#            ENERGY              s1              s2              total
        -30.30000000        0.00000000        0.00000000        0.00000000
        -30.23933934        0.00000113        0.00000097        0.00000210
        -30.17867868        0.00003176        0.00002807        0.00005983
        -30.11801802        0.00041293        0.00037567        0.00078860
        -30.05735736        0.00268370        0.00251148        0.00519518
        -29.99669670        0.00896595        0.00862285        0.01758880
        -29.93603604        0.01685657        0.01657802        0.03343459
        -29.87537538        0.02367045        0.02339962        0.04707007
        -29.81471471        0.03479415        0.03417622        0.06897037
        -29.75405405        0.04704052        0.04636034        0.09340086
        -29.69339339        0.05296660        0.05250511        0.10547171
        -29.63273273        0.06124865        0.06072039        0.12196904
        -29.57207207        0.07571551        0.07537974        0.15109525
        -29.51141141        0.08211086        0.08241726        0.16452811
        -29.45075075        0.07847269        0.07904678        0.15751947
        -29.39009009        0.06907478        0.06981173        0.13888650
        -29.32942943        0.05679474        0.05747398        0.11426872
        -29.26876877        0.04716976        0.04769922        0.09486898
        -29.20810811        0.03817018        0.03870261        0.07687279
        -29.14744745        0.02821575        0.02866995        0.05688570
        -29.08678679        0.01883355        0.01925766        0.03809121
        -29.02612613        0.00983114        0.01026079        0.02009194
        -28.96546547        0.00329460        0.00354245        0.00683705
        -28.90480480        0.00062792        0.00069698        0.00132490
        -28.84414414        0.00006433        0.00007358        0.00013791
        -28.78348348        0.00000377        0.00000437        0.00000814
        -28.72282282        0.00000065        0.00000065        0.00000130
        -28.66216216        0.00000059        0.00000059        0.00000118
        -28.60150150        0.00000027        0.00000028        0.00000055
        -28.54084084        0.00000006        0.00000006        0.00000012
        -28.48018018        0.00000001        0.00000001        0.00000001
        -28.41951952        0.00000000        0.00000000        0.00000000
        -28.35885886        0.00000000        0.00000000        0.00000000
        -28.29819820        0.00000000        0.00000000        0.00000000
        -28.23753754        0.00000000        0.00000000        0.00000000
        -28.17687688        0.00000000        0.00000000        0.00000000
        -28.11621622        0.00000000        0.00000000        0.00000000
        -28.05555556        0.00000000        0.00000000        0.00000000
        -27.99489489        0.00000000        0.00000000        0.00000000
        -27.93423423        0.00000000        0.00000000        0.00000000
        -27.87357357        0.00000000        0.00000000        0.00000000
        -27.81291291        0.00000000        0.00000000        0.00000000
        -27.75225225        0.00000000        0.00000000        0.00000000
        -27.69159159        0.00000000        0.00000000        0.00000000
        -27.63093093        0.00000000        0.00000000        0.00000000
        -27.57027027        0.00000000        0.00000000        0.00000000
        -27.50960961        0.00000000        0.00000000        0.00000000
        -27.44894895        0.00000000        0.00000000        0.00000000
        -27.38828829        0.00000000        0.00000000        0.00000000
        -27.32762763        0.00000000        0.00000000        0.00000000
        -27.26696697        0.00000000        0.00000000        0.00000000
        -27.20630631        0.00000000        0.00000000        0.00000000
        -27.14564565        0.00000000        0.00000000        0.00000000
        -27.08498498        0.00000000        0.00000000        0.00000000
        -27.02432432        0.00000000        0.00000000        0.00000000
        -26.96366366        0.00000000        0.00000000        0.00000000
        -26.90300300        0.00000000        0.00000000        0.00000000
        -26.84234234        0.00000000        0.00000000        0.00000000
        -26.78168168        0.00000000        0.00000000        0.00000000
        -26.72102102        0.00000000        0.00000000        0.00000000
        -26.66036036        0.00000000        0.00000000        0.00000000
        -26.59969970        0.00000000        0.00000000        0.00000000
        -26.53903904        0.00000000        0.00000000        0.00000000
        -26.47837838        0.00000000        0.00000000        0.00000000
        -26.41771772        0.00000000        0.00000000        0.00000000
        -26.35705706        0.00000000        0.00000000        0.00000000
        -26.29639640        0.00000000        0.00000000        0.00000000
        -26.23573574        0.00000000        0.00000000        0.00000000
        -26.17507508        0.00000000        0.00000000        0.00000000
        -26.11441441        0.00000000        0.00000000        0.00000000
        -26.05375375        0.00000000        0.00000000        0.00000000
        -25.99309309        0.00000000        0.00000000        0.00000000
        -25.93243243        0.00000000        0.00000000        0.00000000
        -25.87177177        0.00000000        0.00000000        0.00000000
        -25.81111111        0.00000000        0.00000000        0.00000000
        -25.75045045        0.00000000        0.00000000        0.00000000
        -25.68978979        0.00000000        0.00000000        0.00000000
        -25.62912913        0.00000000        0.00000000        0.00000000
        -25.56846847        0.00000000        0.00000000        0.00000000
        -25.50780781        0.00000000        0.00000000        0.00000000
        -25.44714715        0.00000000        0.00000000        0.00000000
        -25.38648649        0.00000000        0.00000000        0.00000000
        -25.32582583        0.00000000        0.00000000        0.00000000
        -25.26516517        0.00000000        0.00000000        0.00000000
        -25.20450450        0.00000000        0.00000000        0.00000000
        -25.14384384        0.00000000        0.00000000        0.00000000
        -25.08318318        0.00000000        0.00000000        0.00000000
        -25.02252252        0.00000000        0.00000000        0.00000000
        -24.96186186        0.00000000        0.00000000        0.00000000
        -24.90120120        0.00000000        0.00000000        0.00000000
        -24.84054054        0.00000000        0.00000000        0.00000000
        -24.77987988        0.00000000        0.00000000        0.00000000
        -24.71921922        0.00000000        0.00000000        0.00000000
        -24.65855856        0.00000000        0.00000000        0.00000000
        -24.59789790        0.00000000        0.00000000        0.00000000
        -24.53723724        0.00000000        0.00000000        0.00000000
        -24.47657658        0.00000000        0.00000000        0.00000000
        -24.41591592        0.00000000        0.00000000        0.00000000
        -24.35525526        0.00000000        0.00000000        0.00000000
        -24.29459459        0.00000000        0.00000000        0.00000000
        -24.23393393        0.00000000        0.00000000        0.00000000
        -24.17327327        0.00000000        0.00000000        0.00000000
        -24.11261261        0.00000000        0.00000000        0.00000000
        -24.05195195        0.00000000        0.00000000        0.00000000
        -23.99129129        0.00000000        0.00000000        0.00000000
        -23.93063063        0.00000000        0.00000000        0.00000000
        -23.86996997        0.00000000        0.00000000        0.00000000
        -23.80930931        0.00000000        0.00000000        0.00000000
        -23.74864865        0.00000000        0.00000000        0.00000000
        -23.68798799        0.00000000        0.00000000        0.00000000
        -23.62732733        0.00000000        0.00000000        0.00000000
        -23.56666667        0.00000000        0.00000000        0.00000000
        -23.50600601        0.00000000        0.00000000        0.00000000
        -23.44534535        0.00000000        0.00000000        0.00000000
        -23.38468468        0.00000000        0.00000000        0.00000000
        -23.32402402        0.00000000        0.00000000        0.00000000
        -23.26336336        0.00000000        0.00000000        0.00000000
        -23.20270270        0.00000000        0.00000000        0.00000000
        -23.14204204        0.00000000        0.00000000        0.00000000
        -23.08138138        0.00000000        0.00000000        0.00000000
        -23.02072072        0.00000000        0.00000000        0.00000000
        -22.96006006        0.00000000        0.00000000        0.00000000
        -22.89939940        0.00000000        0.00000000        0.00000000
        -22.83873874        0.00000000        0.00000000        0.00000000
        -22.77807808        0.00000000        0.00000000        0.00000000
        -22.71741742        0.00000000        0.00000000        0.00000000
        -22.65675676        0.00000000        0.00000000        0.00000000
        -22.59609610        0.00000000        0.00000000        0.00000000
        -22.53543544        0.00000000        0.00000000        0.00000000
        -22.47477477        0.00000000        0.00000000        0.00000000
        -22.41411411        0.00000000        0.00000000        0.00000000
        -22.35345345        0.00000000        0.00000000        0.00000000
        -22.29279279        0.00000000        0.00000000        0.00000000
        -22.23213213        0.00000000        0.00000000        0.00000000
        -22.17147147        0.00000000        0.00000000        0.00000000
        -22.11081081        0.00000000        0.00000000        0.00000000
        -22.05015015        0.00000000        0.00000000        0.00000000
        -21.98948949        0.00000000        0.00000000        0.00000000
        -21.92882883        0.00000000        0.00000000        0.00000000
        -21.86816817        0.00000000        0.00000000        0.00000000
        -21.80750751        0.00000000        0.00000000        0.00000000
        -21.74684685        0.00000000        0.00000000        0.00000000
        -21.68618619        0.00000000        0.00000000        0.00000000
        -21.62552553        0.00000000        0.00000000        0.00000000
        -21.56486486        0.00000000        0.00000000        0.00000000
        -21.50420420        0.00000000        0.00000000        0.00000000
        -21.44354354        0.00000000        0.00000000        0.00000000
        -21.38288288        0.00000000        0.00000000        0.00000000
        -21.32222222        0.00000000        0.00000000        0.00000000
        -21.26156156        0.00000000        0.00000000        0.00000000
        -21.20090090        0.00000000        0.00000000        0.00000000
        -21.14024024        0.00000000        0.00000000        0.00000000
        -21.07957958        0.00000000        0.00000000        0.00000000
        -21.01891892        0.00000000        0.00000000        0.00000000
        -20.95825826        0.00000000        0.00000000        0.00000000
        -20.89759760        0.00000000        0.00000000        0.00000000
        -20.83693694        0.00000000        0.00000000        0.00000000
        -20.77627628        0.00000001        0.00000000        0.00000001
        -20.71561562        0.00000045        0.00000030        0.00000075
        -20.65495495        0.00000967        0.00000725        0.00001692
        -20.59429429        0.00010766        0.00008617        0.00019383
        -20.53363363        0.00061741        0.00052864        0.00114605
        -20.47297297        0.00182902        0.00167268        0.00350170
        -20.41231231        0.00300093        0.00288463        0.00588556
        -20.35165165        0.00388302        0.00369161        0.00757463
        -20.29099099        0.00657408        0.00606885        0.01264294
        -20.23033033        0.01052613        0.01007966        0.02060579
        -20.16966967        0.01164716        0.01167392        0.02332108
        -20.10900901        0.01039311        0.01051175        0.02090486
        -20.04834835        0.01007231        0.01003529        0.02010760
        -19.98768769        0.01002017        0.01002333        0.02004349
        -19.92702703        0.00929081        0.00931572        0.01860654
        -19.86636637        0.00887284        0.00885065        0.01772349
        -19.80570571        0.00848692        0.00848968        0.01697660
        -19.74504505        0.00781615        0.00781130        0.01562745
        -19.68438438        0.00767355        0.00758493        0.01525849
        -19.62372372        0.00812966        0.00800793        0.01613759
        -19.56306306        0.00840132        0.00830915        0.01671047
        -19.50240240        0.00839379        0.00830037        0.01669416
        -19.44174174        0.00827575        0.00820457        0.01648032
        -19.38108108        0.00778477        0.00777922        0.01556399
        -19.32042042        0.00690498        0.00693792        0.01384290
        -19.25975976        0.00625774        0.00624351        0.01250125
        -19.19909910        0.00629804        0.00623970        0.01253774
        -19.13843844        0.00651260        0.00646853        0.01298114
        -19.07777778        0.00654298        0.00652188        0.01306485
        -19.01711712        0.00639781        0.00638948        0.01278729
        -18.95645646        0.00635192        0.00632029        0.01267220
        -18.89579580        0.00669517        0.00663354        0.01332871
        -18.83513514        0.00696288        0.00693640        0.01389927
        -18.77447447        0.00658545        0.00659603        0.01318148
        -18.71381381        0.00627813        0.00624489        0.01252302
        -18.65315315        0.00656840        0.00651551        0.01308391
        -18.59249249        0.00675910        0.00674470        0.01350380
        -18.53183183        0.00681624        0.00680047        0.01361671
        -18.47117117        0.00740919        0.00734717        0.01475635
        -18.41051051        0.00837827        0.00830430        0.01668256
        -18.34984985        0.00869218        0.00865746        0.01734964
        -18.28918919        0.00867144        0.00862952        0.01730095
        -18.22852853        0.00948854        0.00939285        0.01888139
        -18.16786787        0.01068289        0.01057311        0.02125600
        -18.10720721        0.01112695        0.01109569        0.02222264
        -18.04654655        0.01012025        0.01014407        0.02026433
        -17.98588589        0.00840987        0.00840282        0.01681268
        -17.92522523        0.00629085        0.00632719        0.01261804
        -17.86456456        0.00334601        0.00344355        0.00678956
        -17.80390390        0.00101310        0.00107500        0.00208810
        -17.74324324        0.00015833        0.00017360        0.00033193
        -17.68258258        0.00002883        0.00003153        0.00006036
        -17.62192192        0.00010409        0.00010771        0.00021180
        -17.56126126        0.00030503        0.00030627        0.00061130
        -17.50060060        0.00043001        0.00041921        0.00084922
        -17.43993994        0.00029041        0.00027487        0.00056528
        -17.37927928        0.00009404        0.00008634        0.00018038
        -17.31861862        0.00001745        0.00001414        0.00003159
        -17.25795796        0.00004726        0.00002359        0.00007084
        -17.19729730        0.00036167        0.00021665        0.00057832
        -17.13663664        0.00144258        0.00103980        0.00248237
        -17.07597598        0.00329832        0.00272535        0.00602367
        -17.01531532        0.00585749        0.00497693        0.01083442
        -16.95465465        0.01093014        0.00910010        0.02003024
        -16.89399399        0.01878697        0.01641531        0.03520228
        -16.83333333        0.02531861        0.02385342        0.04917203
        -16.77267267        0.02630900        0.02676397        0.05307297
        -16.71201201        0.02210678        0.02368743        0.04579421
        -16.65135135        0.01837283        0.01922466        0.03759750
        -16.59069069        0.01799645        0.01797992        0.03597637
        -16.53003003        0.01888068        0.01869039        0.03757108
        -16.46936937        0.02011950        0.01983520        0.03995469
        -16.40870871        0.02120413        0.02107535        0.04227948
        -16.34804805        0.02116640        0.02131764        0.04248404
        -16.28738739        0.02101409        0.02101396        0.04202805
        -16.22672673        0.02226024        0.02188700        0.04414724
        -16.16606607        0.02376630        0.02351430        0.04728060
        -16.10540541        0.02464531        0.02434254        0.04898785
        -16.04474474        0.02757531        0.02665861        0.05423392
        -15.98408408        0.03055674        0.03015173        0.06070846
        -15.92342342        0.02941821        0.02990896        0.05932717
        -15.86276276        0.02886760        0.02856007        0.05742767
        -15.80210210        0.03282535        0.03171444        0.06453979
        -15.74144144        0.03571038        0.03533682        0.07104719
        -15.68078078        0.03567285        0.03560824        0.07128110
        -15.62012012        0.03837908        0.03718176        0.07556084
        -15.55945946        0.04662579        0.04436510        0.09099089
        -15.49879880        0.05584425        0.05382055        0.10966480
        -15.43813814        0.06400744        0.06192118        0.12592862
        -15.37747748        0.07391070        0.07123286        0.14514355
        -15.31681682        0.08616287        0.08291399        0.16907686
        -15.25615616        0.09943013        0.09645749        0.19588761
        -15.19549550        0.10725748        0.10598513        0.21324261
        -15.13483483        0.11125534        0.10999679        0.22125212
        -15.07417417        0.11975261        0.11686732        0.23661993
        -15.01351351        0.13104598        0.12805832        0.25910430
        -14.95285285        0.13361253        0.13382621        0.26743874
        -14.89219219        0.12344824        0.12617610        0.24962433
        -14.83153153        0.11352901        0.11497706        0.22850607
        -14.77087087        0.10707097        0.10849825        0.21556922
        -14.71021021        0.08630335        0.09248254        0.17878589
        -14.64954955        0.04920638        0.05742901        0.10663538
        -14.58888889        0.02171548        0.02594772        0.04766320
        -14.52822823        0.01214874        0.01328643        0.02543517
        -14.46756757        0.00778065        0.00876085        0.01654150
        -14.40690691        0.00322950        0.00411785        0.00734735
        -14.34624625        0.00072892        0.00106387        0.00179279
        -14.28558559        0.00009150        0.00015002        0.00024152
        -14.22492492        0.00000735        0.00001230        0.00001965
        -14.16426426        0.00002013        0.00001206        0.00003219
        -14.10360360        0.00035462        0.00023046        0.00058508
        -14.04294294        0.00306374        0.00223993        0.00530367
        -13.98228228        0.01318806        0.01078970        0.02397777
        -13.92162162        0.02992639        0.02701331        0.05693970
        -13.86096096        0.04238113        0.04044173        0.08282287
        -13.80030030        0.05599140        0.05221869        0.10821009
        -13.73963964        0.08633511        0.07959613        0.16593124
        -13.67897898        0.11728649        0.11268167        0.22996816
        -13.61831832        0.12946634        0.12791202        0.25737836
        -13.55765766        0.14021334        0.13673065        0.27694400
        -13.49699700        0.16508475        0.15954601        0.32463076
        -13.43633634        0.18281423        0.18095369        0.36376792
        -13.37567568        0.17426201        0.17701113        0.35127315
        -13.31501502        0.15195868        0.15556792        0.30752660
        -13.25435435        0.13443482        0.13601766        0.27045248
        -13.19369369        0.12916482        0.12861651        0.25778133
        -13.13303303        0.13219365        0.13102437        0.26321801
        -13.07237237        0.13467951        0.13419491        0.26887442
        -13.01171171        0.13479713        0.13403099        0.26882813
        -12.95105105        0.14033085        0.13857509        0.27890594
        -12.89039039        0.14237420        0.14270519        0.28507939
        -12.82972973        0.13023435        0.13252622        0.26276057
        -12.76906907        0.11803461        0.11887872        0.23691333
        -12.70840841        0.11284973        0.11333894        0.22618868
        -12.64774775        0.10200695        0.10444099        0.20644794
        -12.58708709        0.08632897        0.08876083        0.17508980
        -12.52642643        0.07761939        0.07832502        0.15594441
        -12.46576577        0.07492970        0.07508791        0.15001762
        -12.40510511        0.06974475        0.07072439        0.14046914
        -12.34444444        0.05902171        0.06113242        0.12015414
        -12.28378378        0.04326261        0.04619344        0.08945606
        -12.22312312        0.02946634        0.03100126        0.06046760
        -12.16246246        0.02713081        0.02631601        0.05344683
        -12.10180180        0.03214524        0.03085004        0.06299528
        -12.04114114        0.03996697        0.03769507        0.07766204
        -11.98048048        0.05729680        0.05173166        0.10902846
        -11.91981982        0.08555082        0.07764255        0.16319337
        -11.85915916        0.11135401        0.10505467        0.21640868
        -11.79849850        0.12347232        0.12077992        0.24425224
        -11.73783784        0.12746293        0.12604868        0.25351160
        -11.67717718        0.13598512        0.13363863        0.26962375
        -11.61651652        0.13764220        0.13847469        0.27611690
        -11.55585586        0.11897642        0.12286150        0.24183792
        -11.49519520        0.10519214        0.10517251        0.21036465
        -11.43453453        0.11475909        0.11001094        0.22477003
        -11.37387387        0.13819991        0.13112277        0.26932268
        -11.31321321        0.16319248        0.15678359        0.31997607
        -11.25255255        0.17128537        0.16930814        0.34059351
        -11.19189189        0.16098869        0.16195385        0.32294254
        -11.13123123        0.14279509        0.14546212        0.28825721
        -11.07057057        0.12266621        0.12528849        0.24795470
        -11.00990991        0.11385344        0.11311766        0.22697110
        -10.94924925        0.11829112        0.11643477        0.23472589
        -10.88858859        0.11063672        0.11396015        0.22459687
        -10.82792793        0.08472380        0.08992113        0.17464493
        -10.76726727        0.07336721        0.07155273        0.14491993
        -10.70660661        0.10106151        0.08937446        0.19043597
        -10.64594595        0.15856911        0.14202655        0.30059566
        -10.58528529        0.21572069        0.20090783        0.41662852
        -10.52462462        0.25218479        0.24304443        0.49522922
        -10.46396396        0.25605238        0.25576504        0.51181742
        -10.40330330        0.23415376        0.23791422        0.47206798
        -10.34264264        0.22291094        0.22098576        0.44389670
        -10.28198198        0.24109994        0.23154020        0.47264014
        -10.22132132        0.27322162        0.26203616        0.53525777
        -10.16066066        0.29088818        0.28466832        0.57555650
        -10.10000000        0.28664231        0.28620410        0.57284641
        -10.03933934        0.27333607        0.27469258        0.54802865
         -9.97867868        0.28102832        0.27724135        0.55826967
         -9.91801802        0.33869060        0.32645881        0.66514941
         -9.85735736        0.44088038        0.42396647        0.86484685
         -9.79669670        0.51985629        0.50997150        1.02982779
         -9.73603604        0.51255325        0.51318268        1.02573593
         -9.67537538        0.43900195        0.44393412        0.88293607
         -9.61471471        0.36137457        0.36280020        0.72417477
         -9.55405405        0.35149294        0.34057202        0.69206496
         -9.49339339        0.41911231        0.39795930        0.81707161
         -9.43273273        0.49030569        0.47009845        0.96040414
         -9.37207207        0.51467745        0.49879457        1.01347202
         -9.31141141        0.52347588        0.50670152        1.03017740
         -9.25075075        0.54022592        0.52352826        1.06375418
         -9.19009009        0.53791640        0.52422639        1.06214279
         -9.12942943        0.52025777        0.50291135        1.02316911
         -9.06876877        0.52868014        0.50338731        1.03206745
         -9.00810811        0.55011665        0.52521021        1.07532685
         -8.94744745        0.54776728        0.52652314        1.07429042
         -8.88678679        0.54724478        0.52215714        1.06940192
         -8.82612613        0.58463081        0.55472204        1.13935285
         -8.76546547        0.63607422        0.60548702        1.24156124
         -8.70480480        0.67271514        0.64252136        1.31523650
         -8.64414414        0.66432845        0.64347719        1.30780565
         -8.58348348        0.60146283        0.58310637        1.18456921
         -8.52282282        0.56912617        0.51654478        1.08567095
         -8.46216216        0.67385348        0.52115853        1.19501200
         -8.40150150        1.08414811        0.66591227        1.75006038
         -8.34084084        2.03579429        1.24081736        3.27661165
         -8.28018018        2.90679410        2.39933011        5.30612421
         -8.21951952        2.43388807        2.99112884        5.42501691
         -8.15885886        1.17802775        2.06444068        3.24246844
         -8.09819820        0.52567547        0.89815588        1.42383135
         -8.03753754        0.67901822        0.61443975        1.29345797
         -7.97687688        1.41441220        1.13655250        2.55096471
         -7.91621622        2.09923675        1.90392778        4.00316453
         -7.85555556        1.98061861        2.03897743        4.01959604
         -7.79489489        1.52290674        1.62025585        3.14316259
         -7.73423423        1.46546868        1.47055338        2.93602206
         -7.67357357        1.68256677        1.66115735        3.34372412
         -7.61291291        2.00141529        1.91326840        3.91468369
         -7.55225225        2.66808051        2.39624377        5.06432429
         -7.49159159        3.68162530        3.28149550        6.96312080
         -7.43093093        4.79946456        4.45677153        9.25623609
         -7.37027027        6.11004228        5.87983261       11.98987489
         -7.30960961        7.14073042        7.11155633       14.25228676
         -7.24894895        6.62867990        6.88525691       13.51393681
         -7.18828829        4.87557222        5.16808004       10.04365226
         -7.12762763        3.29903472        3.47700963        6.77604435
         -7.06696697        2.19948562        2.32267487        4.52216049
         -7.00630631        1.75154264        1.78513640        3.53667904
         -6.94564565        2.47155546        2.37775925        4.84931471
         -6.88498498        3.61063540        3.50691078        7.11754619
         -6.82432432        3.95234164        4.01094212        7.96328377
         -6.76366366        3.23698847        3.41846384        6.65545231
         -6.70300300        2.40157012        2.49260688        4.89417700
         -6.64234234        2.35170142        2.33181155        4.68351297
         -6.58168168        2.55171367        2.53164966        5.08336333
         -6.52102102        2.28834391        2.27198240        4.56032630
         -6.46036036        1.74448744        1.72732724        3.47181468
         -6.39969970        1.16492331        1.16730906        2.33223238
         -6.33903904        0.76832341        0.76211794        1.53044134
         -6.27837838        0.69103530        0.66505500        1.35609030
         -6.21771772        0.75194361        0.72492586        1.47686947
         -6.15705706        0.66515384        0.64382922        1.30898306