#            ENERGY              s1              s2              total
        -30.30000000        0.00000000        0.00000000        0.00000000
        -30.23933934        0.00000014        0.00000012        0.00000026
        -30.17867868        0.00000396        0.00000350        0.00000746
        -30.11801802        0.00005163        0.00004685        0.00009848
        -30.05735736        0.00033626        0.00031378        0.00065005
        -29.99669670        0.00112302        0.00107703        0.00220004
        -29.93603604        0.00206329        0.00202757        0.00409086
        -29.87537538        0.00257480        0.00256140        0.00513621
        -29.81471471        0.00303649        0.00300714        0.00604362
        -29.75405405        0.00352495        0.00347293        0.00699788
        -29.69339339        0.00376404        0.00371582        0.00747986
        -29.63273273        0.00409973        0.00406585        0.00816559
        -29.57207207        0.00472677        0.00470349        0.00943026
        -29.51141141        0.00488206        0.00489358        0.00977564
        -29.45075075        0.00416964        0.00421061        0.00838025
        -29.39009009        0.00304492        0.00309113        0.00613605
        -29.32942943        0.00210745        0.00214020        0.00424765
        -29.26876877        0.00145252        0.00148041        0.00293293
        -29.20810811        0.00082485        0.00084999        0.00167485
        -29.14744745        0.00035662        0.00036980        0.00072642
        -29.08678679        0.00014874        0.00015314        0.00030188
        -29.02612613        0.00006489        0.00006720        0.00013209
        -28.96546547        0.00002065        0.00002198        0.00004263
        -28.90480480        0.00000369        0.00000407        0.00000776
        -28.84414414        0.00000033        0.00000038        0.00000071
        -28.78348348       -0.00000000       -0.00000000       -0.00000000
        -28.72282282       -0.00000004       -0.00000004       -0.00000008
        -28.66216216       -0.00000004       -0.00000004       -0.00000007
        -28.60150150       -0.00000002       -0.00000002       -0.00000003
        -28.54084084       -0.00000000       -0.00000000       -0.00000001
        -28.48018018       -0.00000000       -0.00000000       -0.00000000
        -28.41951952       -0.00000000       -0.00000000       -0.00000000
        -28.35885886        0.00000000        0.00000000        0.00000000
        -28.29819820        0.00000000        0.00000000        0.00000000
        -28.23753754        0.00000000        0.00000000        0.00000000
        -28.17687688        0.00000000        0.00000000        0.00000000
        -28.11621622        0.00000000        0.00000000        0.00000000
        -28.05555556        0.00000000        0.00000000        0.00000000
        -27.99489489        0.00000000        0.00000000        0.00000000
        -27.93423423        0.00000000        0.00000000        0.00000000
        -27.87357357        0.00000000        0.00000000        0.00000000
        -27.81291291        0.00000000        0.00000000        0.00000000
        -27.75225225        0.00000000        0.00000000        0.00000000
        -27.69159159        0.00000000        0.00000000        0.00000000
        -27.63093093        0.00000000        0.00000000        0.00000000
        -27.57027027        0.00000000        0.00000000        0.00000000
        -27.50960961        0.00000000        0.00000000        0.00000000
        -27.44894895        0.00000000        0.00000000        0.00000000
        -27.38828829        0.00000000        0.00000000        0.00000000
        -27.32762763        0.00000000        0.00000000        0.00000000
        -27.26696697        0.00000000        0.00000000        0.00000000
        -27.20630631        0.00000000        0.00000000        0.00000000
        -27.14564565        0.00000000        0.00000000        0.00000000
        -27.08498498        0.00000000        0.00000000        0.00000000
        -27.02432432        0.00000000        0.00000000        0.00000000
        -26.96366366        0.00000000        0.00000000        0.00000000
        -26.90300300        0.00000000        0.00000000        0.00000000
        -26.84234234        0.00000000        0.00000000        0.00000000
        -26.78168168        0.00000000        0.00000000        0.00000000
        -26.72102102        0.00000000        0.00000000        0.00000000
        -26.66036036        0.00000000        0.00000000        0.00000000
        -26.59969970        0.00000000        0.00000000        0.00000000
        -26.53903904        0.00000000        0.00000000        0.00000000
        -26.47837838        0.00000000        0.00000000        0.00000000
        -26.41771772        0.00000000        0.00000000        0.00000000
        -26.35705706        0.00000000        0.00000000        0.00000000
        -26.29639640        0.00000000        0.00000000        0.00000000
        -26.23573574        0.00000000        0.00000000        0.00000000
        -26.17507508        0.00000000        0.00000000        0.00000000
        -26.11441441        0.00000000        0.00000000        0.00000000
        -26.05375375        0.00000000        0.00000000        0.00000000
        -25.99309309        0.00000000        0.00000000        0.00000000
        -25.93243243        0.00000000        0.00000000        0.00000000
        -25.87177177        0.00000000        0.00000000        0.00000000
        -25.81111111        0.00000000        0.00000000        0.00000000
        -25.75045045        0.00000000        0.00000000        0.00000000
        -25.68978979        0.00000000        0.00000000        0.00000000
        -25.62912913        0.00000000        0.00000000        0.00000000
        -25.56846847        0.00000000        0.00000000        0.00000000
        -25.50780781        0.00000000        0.00000000        0.00000000
        -25.44714715        0.00000000        0.00000000        0.00000000
        -25.38648649        0.00000000        0.00000000        0.00000000
        -25.32582583        0.00000000        0.00000000        0.00000000
        -25.26516517        0.00000000        0.00000000        0.00000000
        -25.20450450        0.00000000        0.00000000        0.00000000
        -25.14384384        0.00000000        0.00000000        0.00000000
        -25.08318318        0.00000000        0.00000000        0.00000000
        -25.02252252        0.00000000        0.00000000        0.00000000
        -24.96186186        0.00000000        0.00000000        0.00000000
        -24.90120120        0.00000000        0.00000000        0.00000000
        -24.84054054        0.00000000        0.00000000        0.00000000
        -24.77987988        0.00000000        0.00000000        0.00000000
        -24.71921922        0.00000000        0.00000000        0.00000000
        -24.65855856        0.00000000        0.00000000        0.00000000
        -24.59789790        0.00000000        0.00000000        0.00000000
        -24.53723724        0.00000000        0.00000000        0.00000000
        -24.47657658        0.00000000        0.00000000        0.00000000
        -24.41591592        0.00000000        0.00000000        0.00000000
        -24.35525526        0.00000000        0.00000000        0.00000000
        -24.29459459        0.00000000        0.00000000        0.00000000
        -24.23393393        0.00000000        0.00000000        0.00000000
        -24.17327327        0.00000000        0.00000000        0.00000000
        -24.11261261        0.00000000        0.00000000        0.00000000
        -24.05195195        0.00000000        0.00000000        0.00000000
        -23.99129129        0.00000000        0.00000000        0.00000000
        -23.93063063        0.00000000        0.00000000        0.00000000
        -23.86996997        0.00000000        0.00000000        0.00000000
        -23.80930931        0.00000000        0.00000000        0.00000000
        -23.74864865        0.00000000        0.00000000        0.00000000
        -23.68798799        0.00000000        0.00000000        0.00000000
        -23.62732733        0.00000000        0.00000000        0.00000000
        -23.56666667        0.00000000        0.00000000        0.00000000
        -23.50600601        0.00000000        0.00000000        0.00000000
        -23.44534535        0.00000000        0.00000000        0.00000000
        -23.38468468        0.00000000        0.00000000        0.00000000
        -23.32402402        0.00000000        0.00000000        0.00000000
        -23.26336336        0.00000000        0.00000000        0.00000000
        -23.20270270        0.00000000        0.00000000        0.00000000
        -23.14204204        0.00000000        0.00000000        0.00000000
        -23.08138138        0.00000000        0.00000000        0.00000000
        -23.02072072        0.00000000        0.00000000        0.00000000
        -22.96006006        0.00000000        0.00000000        0.00000000
        -22.89939940        0.00000000        0.00000000        0.00000000
        -22.83873874        0.00000000        0.00000000        0.00000000
        -22.77807808        0.00000000        0.00000000        0.00000000
        -22.71741742        0.00000000        0.00000000        0.00000000
        -22.65675676        0.00000000        0.00000000        0.00000000
        -22.59609610        0.00000000        0.00000000        0.00000000
        -22.53543544        0.00000000        0.00000000        0.00000000
        -22.47477477        0.00000000        0.00000000        0.00000000
        -22.41411411        0.00000000        0.00000000        0.00000000
        -22.35345345        0.00000000        0.00000000        0.00000000
        -22.29279279        0.00000000        0.00000000        0.00000000
        -22.23213213        0.00000000        0.00000000        0.00000000
        -22.17147147        0.00000000        0.00000000        0.00000000
        -22.11081081        0.00000000        0.00000000        0.00000000
        -22.05015015        0.00000000        0.00000000        0.00000000
        -21.98948949        0.00000000        0.00000000        0.00000000
        -21.92882883        0.00000000        0.00000000        0.00000000
        -21.86816817        0.00000000        0.00000000        0.00000000
        -21.80750751        0.00000000        0.00000000        0.00000000
        -21.74684685        0.00000000        0.00000000        0.00000000
        -21.68618619        0.00000000        0.00000000        0.00000000
        -21.62552553        0.00000000        0.00000000        0.00000000
        -21.56486486        0.00000000        0.00000000        0.00000000
        -21.50420420        0.00000000        0.00000000        0.00000000
        -21.44354354        0.00000000        0.00000000        0.00000000
        -21.38288288        0.00000000        0.00000000        0.00000000
        -21.32222222        0.00000000        0.00000000        0.00000000
        -21.26156156        0.00000000        0.00000000        0.00000000
        -21.20090090        0.00000000        0.00000000        0.00000000
        -21.14024024        0.00000000        0.00000000        0.00000000
        -21.07957958        0.00000000        0.00000000        0.00000000
        -21.01891892        0.00000000        0.00000000        0.00000000
        -20.95825826        0.00000000        0.00000000        0.00000000
        -20.89759760        0.00000000        0.00000000        0.00000000
        -20.83693694        0.00000000        0.00000000        0.00000000
        -20.77627628        0.00000000        0.00000000        0.00000000
        -20.71561562        0.00000004        0.00000002        0.00000006
        -20.65495495        0.00000081        0.00000061        0.00000142
        -20.59429429        0.00000954        0.00000765        0.00001719
        -20.53363363        0.00005869        0.00005017        0.00010886
        -20.47297297        0.00019067        0.00017339        0.00036405
        -20.41231231        0.00035584        0.00033846        0.00069430
        -20.35165165        0.00052602        0.00049760        0.00102362
        -20.29099099        0.00091888        0.00084839        0.00176727
        -20.23033033        0.00156961        0.00148129        0.00305091
        -20.16966967        0.00203908        0.00199173        0.00403081
        -20.10900901        0.00210224        0.00208452        0.00418676
        -20.04834835        0.00205426        0.00203105        0.00408531
        -19.98768769        0.00200584        0.00198950        0.00399534
        -19.92702703        0.00188513        0.00187618        0.00376131
        -19.86636637        0.00182149        0.00180126        0.00362275
        -19.80570571        0.00180237        0.00178395        0.00358632
        -19.74504505        0.00166842        0.00166386        0.00333228
        -19.68438438        0.00149247        0.00148927        0.00298173
        -19.62372372        0.00138104        0.00137260        0.00275364
        -19.56306306        0.00131093        0.00129965        0.00261057
        -19.50240240        0.00127300        0.00125556        0.00252856
        -19.44174174        0.00129826        0.00127380        0.00257206
        -19.38108108        0.00134701        0.00132321        0.00267022
        -19.32042042        0.00134176        0.00132640        0.00266817
        -19.25975976        0.00126791        0.00125900        0.00252691
        -19.19909910        0.00119503        0.00118443        0.00237946
        -19.13843844        0.00118577        0.00116864        0.00235441
        -19.07777778        0.00121771        0.00119919        0.00241690
        -19.01711712        0.00121700        0.00120275        0.00241974
        -18.95645646        0.00119354        0.00118021        0.00237375
        -18.89579580        0.00117201        0.00115984        0.00233185
        -18.83513514        0.00112905        0.00111923        0.00224827
        -18.77447447        0.00109233        0.00108044        0.00217276
        -18.71381381        0.00109602        0.00108075        0.00217677
        -18.65315315        0.00112386        0.00110654        0.00223039
        -18.59249249        0.00116644        0.00114826        0.00231470
        -18.53183183        0.00121190        0.00119588        0.00240778
        -18.47117117        0.00124176        0.00122733        0.00246909
        -18.41051051        0.00126433        0.00124779        0.00251212
        -18.34984985        0.00127817        0.00125923        0.00253740
        -18.28918919        0.00133310        0.00131110        0.00264420
        -18.22852853        0.00150532        0.00147778        0.00298310
        -18.16786787        0.00175490        0.00172074        0.00347564
        -18.10720721        0.00194245        0.00191167        0.00385412
        -18.04654655        0.00188189        0.00186081        0.00374270
        -17.98588589        0.00163900        0.00162429        0.00326329
        -17.92522523        0.00125679        0.00125894        0.00251573
        -17.86456456        0.00068067        0.00069732        0.00137798
        -17.80390390        0.00021030        0.00022159        0.00043189
        -17.74324324        0.00003344        0.00003630        0.00006974
        -17.68258258        0.00000406        0.00000442        0.00000848
        -17.62192192        0.00000908        0.00000915        0.00001824
        -17.56126126        0.00002644        0.00002583        0.00005227
        -17.50060060        0.00003728        0.00003535        0.00007263
        -17.43993994        0.00002518        0.00002318        0.00004835
        -17.37927928        0.00000816        0.00000728        0.00001544
        -17.31861862        0.00000175        0.00000129        0.00000304
        -17.25795796        0.00000800        0.00000392        0.00001192
        -17.19729730        0.00006335        0.00003746        0.00010081
        -17.13663664        0.00026702        0.00018789        0.00045491
        -17.07597598        0.00069112        0.00054541        0.00123654
        -17.01531532        0.00147116        0.00118913        0.00266029
        -16.95465465        0.00299485        0.00247079        0.00546564
        -16.89399399        0.00502043        0.00444879        0.00946923
        -16.83333333        0.00651438        0.00619555        0.01270993
        -16.77267267        0.00688615        0.00693510        0.01382125
        -16.71201201        0.00601970        0.00640865        0.01242835
        -16.65135135        0.00462039        0.00501706        0.00963745
        -16.59069069        0.00389190        0.00402530        0.00791720
        -16.53003003        0.00388511        0.00386526        0.00775038
        -16.46936937        0.00421228        0.00411880        0.00833108
        -16.40870871        0.00470344        0.00460560        0.00930904
        -16.34804805        0.00485874        0.00488244        0.00974118
        -16.28738739        0.00461374        0.00469434        0.00930809
        -16.22672673        0.00446280        0.00448051        0.00894331
        -16.16606607        0.00457943        0.00454035        0.00911978
        -16.10540541        0.00485592        0.00476988        0.00962580
        -16.04474474        0.00552833        0.00532886        0.01085718
        -15.98408408        0.00628399        0.00615967        0.01244366
        -15.92342342        0.00605628        0.00618537        0.01224165
        -15.86276276        0.00555492        0.00557862        0.01113353
        -15.80210210        0.00607710        0.00587522        0.01195232
        -15.74144144        0.00657417        0.00651965        0.01309382
        -15.68078078        0.00630584        0.00637542        0.01268126
        -15.62012012        0.00639429        0.00627726        0.01267155
        -15.55945946        0.00745685        0.00715723        0.01461409
        -15.49879880        0.00861864        0.00838666        0.01700530
        -15.43813814        0.00941537        0.00921983        0.01863520
        -15.37747748        0.01045970        0.01014957        0.02060927
        -15.31681682        0.01215354        0.01169368        0.02384721
        -15.25615616        0.01393914        0.01359805        0.02753719
        -15.19549550        0.01447595        0.01447503        0.02895098
        -15.13483483        0.01439163        0.01438803        0.02877966
        -15.07417417        0.01490748        0.01470845        0.02961593
        -15.01351351        0.01588499        0.01560650        0.03149149
        -14.95285285        0.01640394        0.01636022        0.03276415
        -14.89219219        0.01557945        0.01588116        0.03146060
        -14.83153153        0.01396359        0.01431879        0.02828238
        -14.77087087        0.01222272        0.01258346        0.02480618
        -14.71021021        0.00944217        0.01011775        0.01955992
        -14.64954955        0.00571306        0.00646568        0.01217874
        -14.58888889        0.00305381        0.00345955        0.00651335
        -14.52822823        0.00184570        0.00201833        0.00386404
        -14.46756757        0.00106636        0.00121963        0.00228600
        -14.40690691        0.00040761        0.00052278        0.00093039
        -14.34624625        0.00008690        0.00012737        0.00021427
        -14.28558559        0.00001020        0.00001689        0.00002710
        -14.22492492        0.00000092        0.00000128        0.00000219
        -14.16426426        0.00000863        0.00000505        0.00001368
        -14.10360360        0.00015653        0.00010205        0.00025858
        -14.04294294        0.00138677        0.00101345        0.00240022
        -13.98228228        0.00628157        0.00510586        0.01138743
        -13.92162162        0.01555068        0.01386314        0.02941382
        -13.86096096        0.02392819        0.02277237        0.04670056
        -13.80030030        0.02980694        0.02862567        0.05843261
        -13.73963964        0.04082754        0.03820971        0.07903725
        -13.67897898        0.05540876        0.05296660        0.10837536
        -13.61831832        0.06038938        0.06021073        0.12060011
        -13.55765766        0.05626657        0.05688608        0.11315265
        -13.49699700        0.05403679        0.05384502        0.10788181
        -13.43633634        0.05550115        0.05503906        0.11054021
        -13.37567568        0.05557084        0.05570692        0.11127777
        -13.31501502        0.05160277        0.05225651        0.10385929
        -13.25435435        0.04679438        0.04711143        0.09390581
        -13.19369369        0.04474474        0.04457419        0.08931893
        -13.13303303        0.04514881        0.04483136        0.08998017
        -13.07237237        0.04649351        0.04618709        0.09268061
        -13.01171171        0.04801701        0.04771391        0.09573093
        -12.95105105        0.04844433        0.04855090        0.09699523
        -12.89039039        0.04444484        0.04541612        0.08986097
        -12.82972973        0.03808539        0.03893834        0.07702373
        -12.76906907        0.03541395        0.03541686        0.07083081
        -12.70840841        0.03519391        0.03529316        0.07048707
        -12.64774775        0.03263180        0.03333955        0.06597135
        -12.58708709        0.02864979        0.02932752        0.05797731
        -12.52642643        0.02590427        0.02621770        0.05212198
        -12.46576577        0.02398685        0.02430630        0.04829315
        -12.40510511        0.02025572        0.02105666        0.04131238
        -12.34444444        0.01468644        0.01570431        0.03039075
        -12.28378378        0.00934877        0.01021756        0.01956633
        -12.22312312        0.00602763        0.00632007        0.01234770
        -12.16246246        0.00617112        0.00578874        0.01195986
        -12.10180180        0.00844431        0.00784227        0.01628658
        -12.04114114        0.01262251        0.01134872        0.02397123
        -11.98048048        0.02208779        0.01926793        0.04135572
        -11.91981982        0.03528082        0.03194232        0.06722313
        -11.85915916        0.04517532        0.04286688        0.08804220
        -11.79849850        0.05030274        0.04909800        0.09940073
        -11.73783784        0.05374097        0.05297083        0.10671180
        -11.67717718        0.05767756        0.05704662        0.11472418
        -11.61651652        0.05664825        0.05765329        0.11430154
        -11.55585586        0.04715233        0.04916475        0.09631708
        -11.49519520        0.04067622        0.04081925        0.08149547
        -11.43453453        0.04323861        0.04176542        0.08500402
        -11.37387387        0.04960740        0.04763055        0.09723795
        -11.31321321        0.05806499        0.05569417        0.11375915
        -11.25255255        0.06451363        0.06317186        0.12768550
        -11.19189189        0.06284717        0.06353642        0.12638359
        -11.13123123        0.05482740        0.05651168        0.11133908
        -11.07057057        0.04781491        0.04869999        0.09651490
        -11.00990991        0.04708425        0.04658723        0.09367149
        -10.94924925        0.04986553        0.04942501        0.09929055
        -10.88858859        0.05007299        0.05063146        0.10070445
        -10.82792793        0.04771943        0.04850734        0.09622678
        -10.76726727        0.04552809        0.04514253        0.09067062
        -10.70660661        0.05347901        0.04929753        0.10277654
        -10.64594595        0.07754380        0.07039005        0.14793385
        -10.58528529        0.10227644        0.09687129        0.19914773
        -10.52462462        0.11360375        0.11154604        0.22514979
        -10.46396396        0.11718557        0.11655068        0.23373626
        -10.40330330        0.12007815        0.11966893        0.23974708
        -10.34264264        0.12202235        0.12140586        0.24342820
        -10.28198198        0.12480306        0.12263676        0.24743982
        -10.22132132        0.13543885        0.13070427        0.26614312
        -10.16066066        0.14894935        0.14486928        0.29381864
        -10.10000000        0.15157593        0.15137282        0.30294875
        -10.03933934        0.14316487        0.14536802        0.28853289
         -9.97867868        0.13654983        0.13824982        0.27479965
         -9.91801802        0.14767274        0.14615275        0.29382549
         -9.85735736        0.19154518        0.18494360        0.37648878
         -9.79669670        0.24427014        0.23846028        0.48273042
         -9.73603604        0.25811996        0.25832724        0.51644720
         -9.67537538        0.22986395        0.23370294        0.46356689
         -9.61471471        0.19604666        0.19818705        0.39423372
         -9.55405405        0.19617595        0.19234402        0.38851998
         -9.49339339        0.23778276        0.22899957        0.46678233
         -9.43273273        0.28533906        0.27740085        0.56273990
         -9.37207207        0.30199046        0.29789404        0.59988450
         -9.31141141        0.29995741        0.29665707        0.59661448
         -9.25075075        0.30770254        0.30282032        0.61052286
         -9.19009009        0.33129054        0.32426643        0.65555696
         -9.12942943        0.37330422        0.36289026        0.73619448
         -9.06876877        0.43436843        0.42102058        0.85538900
         -9.00810811        0.49302176        0.48065205        0.97367381
         -8.94744745        0.52992294        0.52063699        1.05055993
         -8.88678679        0.55389137        0.54412790        1.09801927
         -8.82612613        0.59244875        0.57824998        1.17069874
         -8.76546547        0.65436886        0.63825397        1.29262284
         -8.70480480        0.69730442        0.69227989        1.38958431
         -8.64414414        0.66077975        0.67492033        1.33570008
         -8.58348348        0.57374906        0.59181660        1.16556566
         -8.52282282        0.50358163        0.51254118        1.01612281
         -8.46216216        0.45178804        0.44629245        0.89808050
         -8.40150150        0.43659192        0.38153584        0.81812776
         -8.34084084        0.54419912        0.40223039        0.94642951
         -8.28018018        0.69066463        0.58496685        1.27563147
         -8.21951952        0.61350110        0.71103932        1.32454042
         -8.15885886        0.39142685        0.55999018        0.95141702
         -8.09819820        0.28926429        0.35801009        0.64727439
         -8.03753754        0.37727864        0.34960187        0.72688051
         -7.97687688        0.66506353        0.57663620        1.24169974
         -7.91621622        1.01353421        0.93714045        1.95067466
         -7.85555556        1.17669386        1.16627264        2.34296650
         -7.79489489        1.28190203        1.27119183        2.55309386
         -7.73423423        1.68390184        1.59365781        3.27755965
         -7.67357357        2.82514949        2.49066501        5.31581449
         -7.61291291        6.02966724        4.96153245       10.99119969
         -7.55225225       12.60251404       10.39061267       22.99312671
         -7.49159159       20.68094275       18.13047127       38.81141402
         -7.43093093       25.90051226       25.13490730       51.03541955
         -7.37027027       27.96056189       29.36405822       57.32462012
         -7.30960961       29.70356036       31.55332155       61.25688191
         -7.24894895       29.66202940       30.97399130       60.63602070
         -7.18828829       27.72074498       28.29031213       56.01105712
         -7.12762763       25.66056403       26.19155871       51.85212275
         -7.06696697       21.31081862       22.32846977       43.63928839
         -7.00630631       19.79624539       20.26391248       40.06015786
         -6.94564565       29.30775060       28.70723508       58.01498567
         -6.88498498       40.53551113       39.94417014       80.47968128
         -6.82432432       41.61676406       42.12397034       83.74073440
         -6.76366366       35.54965225       36.87970172       72.42935398
         -6.70300300       34.90644405       35.65504294       70.56148699
         -6.64234234       42.86543463       42.81027537       85.67571000
         -6.58168168       47.95887423       47.99256324       95.95143747
         -6.52102102       47.98755394       48.14142868       96.12898263
         -6.46036036       51.25758748       51.75879596      103.01638345
         -6.39969970       57.70292072       58.55906846      116.26198918
         -6.33903904       65.21456007       65.54657490      130.76113498
         -6.27837838       70.50278475       70.41203457      140.91481932
         -6.21771772       66.93174061       66.78982784      133.72156845
         -6.15705706       56.91648626       56.44684303      113.36332928