#            ENERGY              s1              s2              total
        -30.30000000        0.00000000        0.00000000        0.00000000
        -30.23933934        0.00000136        0.00000117        0.00000252
        -30.17867868        0.00003866        0.00003405        0.00007271
        -30.11801802        0.00050670        0.00045914        0.00096583
        -30.05735736        0.00333412        0.00310667        0.00644079
        -29.99669670        0.01136214        0.01087515        0.02223729
        -29.93603604        0.02202177        0.02155020        0.04357197
        -29.87537538        0.03147897        0.03104360        0.06252258
        -29.81471471        0.04410687        0.04335604        0.08746291
        -29.75405405        0.05585851        0.05496822        0.11082673
        -29.69339339        0.06044813        0.05976962        0.12021776
        -29.63273273        0.06584409        0.06532377        0.13116786
        -29.57207207        0.07626794        0.07589522        0.15216315
        -29.51141141        0.08006933        0.08014456        0.16021389
        -29.45075075        0.07274155        0.07318472        0.14592627
        -29.39009009        0.05731335        0.05803348        0.11534683
        -29.32942943        0.04102017        0.04160756        0.08262773
        -29.26876877        0.02996602        0.03037287        0.06033890
        -29.20810811        0.02021418        0.02061087        0.04082505
        -29.14744745        0.01167856        0.01194027        0.02361883
        -29.08678679        0.00654498        0.00667795        0.01322293
        -29.02612613        0.00332989        0.00344415        0.00677404
        -28.96546547        0.00115351        0.00122838        0.00238189
        -28.90480480        0.00022339        0.00024625        0.00046964
        -28.84414414        0.00002227        0.00002544        0.00004771
        -28.78348348        0.00000108        0.00000129        0.00000237
        -28.72282282       -0.00000007       -0.00000007       -0.00000015
        -28.66216216       -0.00000007       -0.00000007       -0.00000015
        -28.60150150       -0.00000003       -0.00000004       -0.00000007
        -28.54084084       -0.00000001       -0.00000001       -0.00000002
        -28.48018018       -0.00000000       -0.00000000       -0.00000000
        -28.41951952       -0.00000000       -0.00000000       -0.00000000
        -28.35885886        0.00000000        0.00000000        0.00000000
        -28.29819820        0.00000000        0.00000000        0.00000000
        -28.23753754        0.00000000        0.00000000        0.00000000
        -28.17687688        0.00000000        0.00000000        0.00000000
        -28.11621622        0.00000000        0.00000000        0.00000000
        -28.05555556        0.00000000        0.00000000        0.00000000
        -27.99489489        0.00000000        0.00000000        0.00000000
        -27.93423423        0.00000000        0.00000000        0.00000000
        -27.87357357        0.00000000        0.00000000        0.00000000
        -27.81291291        0.00000000        0.00000000        0.00000000
        -27.75225225        0.00000000        0.00000000        0.00000000
        -27.69159159        0.00000000        0.00000000        0.00000000
        -27.63093093        0.00000000        0.00000000        0.00000000
        -27.57027027        0.00000000        0.00000000        0.00000000
        -27.50960961        0.00000000        0.00000000        0.00000000
        -27.44894895        0.00000000        0.00000000        0.00000000
        -27.38828829        0.00000000        0.00000000        0.00000000
        -27.32762763        0.00000000        0.00000000        0.00000000
        -27.26696697        0.00000000        0.00000000        0.00000000
        -27.20630631        0.00000000        0.00000000        0.00000000
        -27.14564565        0.00000000        0.00000000        0.00000000
        -27.08498498        0.00000000        0.00000000        0.00000000
        -27.02432432        0.00000000        0.00000000        0.00000000
        -26.96366366        0.00000000        0.00000000        0.00000000
        -26.90300300        0.00000000        0.00000000        0.00000000
        -26.84234234        0.00000000        0.00000000        0.00000000
        -26.78168168        0.00000000        0.00000000        0.00000000
        -26.72102102        0.00000000        0.00000000        0.00000000
        -26.66036036        0.00000000        0.00000000        0.00000000
        -26.59969970        0.00000000        0.00000000        0.00000000
        -26.53903904        0.00000000        0.00000000        0.00000000
        -26.47837838        0.00000000        0.00000000        0.00000000
        -26.41771772        0.00000000        0.00000000        0.00000000
        -26.35705706        0.00000000        0.00000000        0.00000000
        -26.29639640        0.00000000        0.00000000        0.00000000
        -26.23573574        0.00000000        0.00000000        0.00000000
        -26.17507508        0.00000000        0.00000000        0.00000000
        -26.11441441        0.00000000        0.00000000        0.00000000
        -26.05375375        0.00000000        0.00000000        0.00000000
        -25.99309309        0.00000000        0.00000000        0.00000000
        -25.93243243        0.00000000        0.00000000        0.00000000
        -25.87177177        0.00000000        0.00000000        0.00000000
        -25.81111111        0.00000000        0.00000000        0.00000000
        -25.75045045        0.00000000        0.00000000        0.00000000
        -25.68978979        0.00000000        0.00000000        0.00000000
        -25.62912913        0.00000000        0.00000000        0.00000000
        -25.56846847        0.00000000        0.00000000        0.00000000
        -25.50780781        0.00000000        0.00000000        0.00000000
        -25.44714715        0.00000000        0.00000000        0.00000000
        -25.38648649        0.00000000        0.00000000        0.00000000
        -25.32582583        0.00000000        0.00000000        0.00000000
        -25.26516517        0.00000000        0.00000000        0.00000000
        -25.20450450        0.00000000        0.00000000        0.00000000
        -25.14384384        0.00000000        0.00000000        0.00000000
        -25.08318318        0.00000000        0.00000000        0.00000000
        -25.02252252        0.00000000        0.00000000        0.00000000
        -24.96186186        0.00000000        0.00000000        0.00000000
        -24.90120120        0.00000000        0.00000000        0.00000000
        -24.84054054        0.00000000        0.00000000        0.00000000
        -24.77987988        0.00000000        0.00000000        0.00000000
        -24.71921922        0.00000000        0.00000000        0.00000000
        -24.65855856        0.00000000        0.00000000        0.00000000
        -24.59789790        0.00000000        0.00000000        0.00000000
        -24.53723724        0.00000000        0.00000000        0.00000000
        -24.47657658        0.00000000        0.00000000        0.00000000
        -24.41591592        0.00000000        0.00000000        0.00000000
        -24.35525526        0.00000000        0.00000000        0.00000000
        -24.29459459        0.00000000        0.00000000        0.00000000
        -24.23393393        0.00000000        0.00000000        0.00000000
        -24.17327327        0.00000000        0.00000000        0.00000000
        -24.11261261        0.00000000        0.00000000        0.00000000
        -24.05195195        0.00000000        0.00000000        0.00000000
        -23.99129129        0.00000000        0.00000000        0.00000000
        -23.93063063        0.00000000        0.00000000        0.00000000
        -23.86996997        0.00000000        0.00000000        0.00000000
        -23.80930931        0.00000000        0.00000000        0.00000000
        -23.74864865        0.00000000        0.00000000        0.00000000
        -23.68798799        0.00000000        0.00000000        0.00000000
        -23.62732733        0.00000000        0.00000000        0.00000000
        -23.56666667        0.00000000        0.00000000        0.00000000
        -23.50600601        0.00000000        0.00000000        0.00000000
        -23.44534535        0.00000000        0.00000000        0.00000000
        -23.38468468        0.00000000        0.00000000        0.00000000
        -23.32402402        0.00000000        0.00000000        0.00000000
        -23.26336336        0.00000000        0.00000000        0.00000000
        -23.20270270        0.00000000        0.00000000        0.00000000
        -23.14204204        0.00000000        0.00000000        0.00000000
        -23.08138138        0.00000000        0.00000000        0.00000000
        -23.02072072        0.00000000        0.00000000        0.00000000
        -22.96006006        0.00000000        0.00000000        0.00000000
        -22.89939940        0.00000000        0.00000000        0.00000000
        -22.83873874        0.00000000        0.00000000        0.00000000
        -22.77807808        0.00000000        0.00000000        0.00000000
        -22.71741742        0.00000000        0.00000000        0.00000000
        -22.65675676        0.00000000        0.00000000        0.00000000
        -22.59609610        0.00000000        0.00000000        0.00000000
        -22.53543544        0.00000000        0.00000000        0.00000000
        -22.47477477        0.00000000        0.00000000        0.00000000
        -22.41411411        0.00000000        0.00000000        0.00000000
        -22.35345345        0.00000000        0.00000000        0.00000000
        -22.29279279        0.00000000        0.00000000        0.00000000
        -22.23213213        0.00000000        0.00000000        0.00000000
        -22.17147147        0.00000000        0.00000000        0.00000000
        -22.11081081        0.00000000        0.00000000        0.00000000
        -22.05015015        0.00000000        0.00000000        0.00000000
        -21.98948949        0.00000000        0.00000000        0.00000000
        -21.92882883        0.00000000        0.00000000        0.00000000
        -21.86816817        0.00000000        0.00000000        0.00000000
        -21.80750751        0.00000000        0.00000000        0.00000000
        -21.74684685        0.00000000        0.00000000        0.00000000
        -21.68618619        0.00000000        0.00000000        0.00000000
        -21.62552553        0.00000000        0.00000000        0.00000000
        -21.56486486        0.00000000        0.00000000        0.00000000
        -21.50420420        0.00000000        0.00000000        0.00000000
        -21.44354354        0.00000000        0.00000000        0.00000000
        -21.38288288        0.00000000        0.00000000        0.00000000
        -21.32222222        0.00000000        0.00000000        0.00000000
        -21.26156156        0.00000000        0.00000000        0.00000000
        -21.20090090        0.00000000        0.00000000        0.00000000
        -21.14024024        0.00000000        0.00000000        0.00000000
        -21.07957958        0.00000000        0.00000000        0.00000000
        -21.01891892        0.00000000        0.00000000        0.00000000
        -20.95825826        0.00000000        0.00000000        0.00000000
        -20.89759760        0.00000000        0.00000000        0.00000000
        -20.83693694        0.00000000        0.00000000        0.00000000
        -20.77627628        0.00000000        0.00000000        0.00000001
        -20.71561562        0.00000042        0.00000028        0.00000070
        -20.65495495        0.00000910        0.00000681        0.00001590
        -20.59429429        0.00010168        0.00008116        0.00018283
        -20.53363363        0.00058822        0.00050197        0.00109019
        -20.47297297        0.00179224        0.00163006        0.00342230
        -20.41231231        0.00318616        0.00303261        0.00621877
        -20.35165165        0.00455290        0.00432802        0.00888092
        -20.29099099        0.00726685        0.00679020        0.01405705
        -20.23033033        0.01106665        0.01053982        0.02160647
        -20.16966967        0.01328169        0.01302808        0.02630977
        -20.10900901        0.01330534        0.01317624        0.02648158
        -20.04834835        0.01336473        0.01313179        0.02649652
        -19.98768769        0.01396081        0.01370225        0.02766307
        -19.92702703        0.01415102        0.01392052        0.02807154
        -19.86636637        0.01417257        0.01391070        0.02808327
        -19.80570571        0.01425420        0.01400659        0.02826079
        -19.74504505        0.01369394        0.01355126        0.02724520
        -19.68438438        0.01244650        0.01237704        0.02482353
        -19.62372372        0.01115335        0.01108317        0.02223652
        -19.56306306        0.01016702        0.01006452        0.02023154
        -19.50240240        0.00961301        0.00945215        0.01906517
        -19.44174174        0.00962770        0.00940563        0.01903333
        -19.38108108        0.01002653        0.00978644        0.01981297
        -19.32042042        0.01023284        0.01004817        0.02028101
        -19.25975976        0.00991599        0.00978362        0.01969962
        -19.19909910        0.00966044        0.00949610        0.01915653
        -19.13843844        0.01004622        0.00981916        0.01986538
        -19.07777778        0.01059913        0.01038944        0.02098858
        -19.01711712        0.01060255        0.01044603        0.02104857
        -18.95645646        0.01054106        0.01036166        0.02090271
        -18.89579580        0.01085855        0.01066104        0.02151959
        -18.83513514        0.01088510        0.01073874        0.02162384
        -18.77447447        0.01047970        0.01036028        0.02083998
        -18.71381381        0.01021174        0.01007628        0.02028802
        -18.65315315        0.01026554        0.01011117        0.02037671
        -18.59249249        0.01045631        0.01031415        0.02077046
        -18.53183183        0.01045918        0.01035345        0.02081262
        -18.47117117        0.01040774        0.01029232        0.02070006
        -18.41051051        0.01064153        0.01048395        0.02112548
        -18.34984985        0.01078587        0.01062316        0.02140903
        -18.28918919        0.01108306        0.01091090        0.02199396
        -18.22852853        0.01251190        0.01228428        0.02479618
        -18.16786787        0.01462916        0.01434077        0.02896993
        -18.10720721        0.01595921        0.01570877        0.03166798
        -18.04654655        0.01515221        0.01498197        0.03013419
        -17.98588589        0.01306342        0.01292572        0.02598914
        -17.92522523        0.01000042        0.00998982        0.01999024
        -17.86456456        0.00540223        0.00551800        0.01092023
        -17.80390390        0.00166208        0.00174650        0.00340858
        -17.74324324        0.00026313        0.00028496        0.00054809
        -17.68258258        0.00003252        0.00003530        0.00006783
        -17.62192192        0.00007557        0.00007593        0.00015150
        -17.56126126        0.00022014        0.00021442        0.00043457
        -17.50060060        0.00031035        0.00029349        0.00060384
        -17.43993994        0.00020960        0.00019244        0.00040203
        -17.37927928        0.00006790        0.00006045        0.00012835
        -17.31861862        0.00001348        0.00001026        0.00002374
        -17.25795796        0.00004873        0.00002399        0.00007272
        -17.19729730        0.00038535        0.00022773        0.00061308
        -17.13663664        0.00162824        0.00114505        0.00277329
        -17.07597598        0.00416941        0.00330650        0.00747592
        -17.01531532        0.00844425        0.00693655        0.01538080
        -16.95465465        0.01619134        0.01351067        0.02970201
        -16.89399399        0.02667655        0.02357209        0.05024865
        -16.83333333        0.03518236        0.03313804        0.06832040
        -16.77267267        0.03759385        0.03764389        0.07523774
        -16.71201201        0.03284211        0.03475453        0.06759664
        -16.65135135        0.02613315        0.02779908        0.05393224
        -16.59069069        0.02355067        0.02384217        0.04739285
        -16.53003003        0.02407832        0.02380630        0.04788462
        -16.46936937        0.02562470        0.02514051        0.05076521
        -16.40870871        0.02747186        0.02708161        0.05455346
        -16.34804805        0.02745240        0.02765005        0.05510244
        -16.28738739        0.02578008        0.02612251        0.05190260
        -16.22672673        0.02561255        0.02534252        0.05095507
        -16.16606607        0.02756974        0.02699349        0.05456324
        -16.10540541        0.02932810        0.02884559        0.05817368
        -16.04474474        0.03231033        0.03129501        0.06360534
        -15.98408408        0.03596514        0.03523355        0.07119869
        -15.92342342        0.03469403        0.03525305        0.06994708
        -15.86276276        0.03159810        0.03180967        0.06340777
        -15.80210210        0.03282476        0.03204624        0.06487100
        -15.74144144        0.03445449        0.03411247        0.06856696
        -15.68078078        0.03367612        0.03363600        0.06731212
        -15.62012012        0.03579255        0.03451982        0.07031237
        -15.55945946        0.04397469        0.04153290        0.08550759
        -15.49879880        0.05254787        0.05055778        0.10310565
        -15.43813814        0.05897074        0.05706861        0.11603935
        -15.37747748        0.06802137        0.06510432        0.13312569
        -15.31681682        0.08108490        0.07735718        0.15844208
        -15.25615616        0.09303438        0.09032892        0.18336330
        -15.19549550        0.09658723        0.09591001        0.19249724
        -15.13483483        0.09723369        0.09612411        0.19335780
        -15.07417417        0.10387629        0.10083538        0.20471167
        -15.01351351        0.11572885        0.11175751        0.22748636
        -14.95285285        0.12401316        0.12195615        0.24596930
        -14.89219219        0.12128962        0.12201372        0.24330335
        -14.83153153        0.11219709        0.11350922        0.22570632
        -14.77087087        0.10175957        0.10333023        0.20508980
        -14.71021021        0.08129317        0.08622193        0.16751510
        -14.64954955        0.04817390        0.05504501        0.10321890
        -14.58888889        0.02187526        0.02587229        0.04774755
        -14.52822823        0.01103813        0.01230721        0.02334534
        -14.46756757        0.00634142        0.00717422        0.01351564
        -14.40690691        0.00254070        0.00321643        0.00575713
        -14.34624625        0.00057296        0.00082570        0.00139865
        -14.28558559        0.00007329        0.00011809        0.00019138
        -14.22492492        0.00000620        0.00000995        0.00001615
        -14.16426426        0.00002246        0.00001333        0.00003579
        -14.10360360        0.00040774        0.00026427        0.00067201
        -14.04294294        0.00364824        0.00264817        0.00629641
        -13.98228228        0.01683748        0.01357076        0.03040825
        -13.92162162        0.04321264        0.03807651        0.08128915
        -13.86096096        0.07114738        0.06654915        0.13769653
        -13.80030030        0.09734889        0.09185763        0.18920652
        -13.73963964        0.13765806        0.12869483        0.26635289
        -13.67897898        0.17942765        0.17226231        0.35168996
        -13.61831832        0.19283286        0.19111421        0.38394707
        -13.55765766        0.19127010        0.18986753        0.38113763
        -13.49699700        0.20066594        0.19684175        0.39750769
        -13.43633634        0.21379157        0.21085180        0.42464337
        -13.37567568        0.21248173        0.21271696        0.42519870
        -13.31501502        0.19298542        0.19571162        0.38869704
        -13.25435435        0.16888167        0.17081893        0.33970060
        -13.19369369        0.15747831        0.15699723        0.31447554
        -13.13303303        0.15754735        0.15627384        0.31382119
        -13.07237237        0.15847038        0.15770950        0.31617988
        -13.01171171        0.15809535        0.15709042        0.31518576
        -12.95105105        0.16103510        0.15958427        0.32061937
        -12.89039039        0.15713496        0.15803352        0.31516847
        -12.82972973        0.14105339        0.14316882        0.28422221
        -12.76906907        0.13022574        0.13032830        0.26055404
        -12.70840841        0.12748035        0.12746854        0.25494889
        -12.64774775        0.11965725        0.12122674        0.24088399
        -12.58708709        0.10755121        0.10926234        0.21681355
        -12.52642643        0.09777239        0.09859702        0.19636941
        -12.46576577        0.09108136        0.09179126        0.18287261
        -12.40510511        0.07803366        0.08067489        0.15870855
        -12.34444444        0.05628893        0.06005998        0.11634891
        -12.28378378        0.03540780        0.03848221        0.07389001
        -12.22312312        0.02283237        0.02385276        0.04668513
        -12.16246246        0.02268709        0.02138085        0.04406794
        -12.10180180        0.03048038        0.02842943        0.05890982
        -12.04114114        0.04227869        0.03904037        0.08131906
        -11.98048048        0.06319848        0.05687516        0.12007364
        -11.91981982        0.09144967        0.08351953        0.17496920
        -11.85915916        0.11528156        0.10872405        0.22400561
        -11.79849850        0.13032929        0.12614057        0.25646986
        -11.73783784        0.14043907        0.13747837        0.27791743
        -11.67717718        0.15284070        0.14963575        0.30247645
        -11.61651652        0.15509687        0.15591675        0.31101362
        -11.55585586        0.13210263        0.13690101        0.26900365
        -11.49519520        0.11236990        0.11299423        0.22536414
        -11.43453453        0.11712695        0.11312346        0.23025040
        -11.37387387        0.13188290        0.12675810        0.25864099
        -11.31321321        0.15034592        0.14431970        0.29466562
        -11.25255255        0.16460049        0.16057984        0.32518033
        -11.19189189        0.16182868        0.16196251        0.32379119
        -11.13123123        0.14379261        0.14701643        0.29080904
        -11.07057057        0.12140542        0.12460003        0.24600545
        -11.00990991        0.10912799        0.10925017        0.21837816
        -10.94924925        0.10930349        0.10800019        0.21730368
        -10.88858859        0.10570697        0.10705213        0.21275910
        -10.82792793        0.09225744        0.09516949        0.18742693
        -10.76726727        0.08083636        0.08122365        0.16206001
        -10.70660661        0.09063730        0.08401046        0.17464776
        -10.64594595        0.13185064        0.11874623        0.25059687
        -10.58528529        0.17910422        0.16738692        0.34649113
        -10.52462462        0.20381835        0.19771179        0.40153014
        -10.46396396        0.20808566        0.20627682        0.41436249
        -10.40330330        0.20197877        0.20245293        0.40443170
        -10.34264264        0.19296916        0.19305219        0.38602136
        -10.28198198        0.19073620        0.18728771        0.37802391
        -10.22132132        0.20607775        0.19808955        0.40416730
        -10.16066066        0.22628459        0.21978374        0.44606833
        -10.10000000        0.22639618        0.22616788        0.45256406
        -10.03933934        0.20951025        0.21203116        0.42154142
         -9.97867868        0.19840328        0.19955634        0.39795962
         -9.91801802        0.21055592        0.20825923        0.41881515
         -9.85735736        0.26224735        0.25405996        0.51630731
         -9.79669670        0.32559208        0.31785560        0.64344768
         -9.73603604        0.34311420        0.34207983        0.68519404
         -9.67537538        0.30607512        0.31025436        0.61632948
         -9.61471471        0.25019446        0.25431598        0.50451044
         -9.55405405        0.22849010        0.22621308        0.45470318
         -9.49339339        0.26060430        0.25176059        0.51236489
         -9.43273273        0.30597778        0.29699198        0.60296976
         -9.37207207        0.32035411        0.31483345        0.63518756
         -9.31141141        0.31285779        0.30842756        0.62128535
         -9.25075075        0.30992979        0.30498200        0.61491180
         -9.19009009        0.31126075        0.30710604        0.61836679
         -9.12942943        0.30836942        0.30427834        0.61264776
         -9.06876877        0.31145042        0.30461067        0.61606110
         -9.00810811        0.32262729        0.31448155        0.63710884
         -8.94744745        0.33088341        0.32321334        0.65409675
         -8.88678679        0.34036662        0.33141423        0.67178085
         -8.82612613        0.36093586        0.35011630        0.71105215
         -8.76546547        0.38918245        0.37831130        0.76749375
         -8.70480480        0.40594047        0.39938560        0.80532608
         -8.64414414        0.38579922        0.38778818        0.77358740
         -8.58348348        0.33241239        0.33826489        0.67067728
         -8.52282282        0.28099412        0.27969240        0.56068652
         -8.46216216        0.26275435        0.23961990        0.50237426
         -8.40150150        0.31535853        0.23379370        0.54915223
         -8.34084084        0.49772263        0.32813896        0.82586159
         -8.28018018        0.68467816        0.56736364        1.25204180
         -8.21951952        0.58681159        0.69996276        1.28677435
         -8.15885886        0.31016345        0.50097114        0.81113459
         -8.09819820        0.16597727        0.24712399        0.41310126
         -8.03753754        0.20109570        0.18815953        0.38925524
         -7.97687688        0.36242711        0.30367172        0.66609883
         -7.91621622        0.52494104        0.48049818        1.00543922
         -7.85555556        0.53634263        0.54311508        1.07945772
         -7.79489489        0.48687747        0.50118699        0.98806446
         -7.73423423        0.52551490        0.52038513        1.04590003
         -7.67357357        0.62290124        0.61165765        1.23455889
         -7.61291291        0.78162148        0.73897236        1.52059383
         -7.55225225        1.11057580        0.99521522        2.10579103
         -7.49159159        1.56131917        1.40962678        2.97094595
         -7.43093093        2.03107869        1.92859983        3.95967852
         -7.37027027        2.62283653        2.58864635        5.21148288
         -7.30960961        3.11425929        3.16382177        6.27808106
         -7.24894895        2.86901543        3.01841030        5.88742573
         -7.18828829        2.01352346        2.15811798        4.17164144
         -7.12762763        1.23013327        1.31276180        2.54289507
         -7.06696697        0.75066399        0.79836590        1.54902989
         -7.00630631        0.67436401        0.67242680        1.34679080
         -6.94564565        1.17212886        1.09214907        2.26427793
         -6.88498498        1.89834856        1.78765671        3.68600527
         -6.82432432        2.12201965        2.10069292        4.22271257
         -6.76366366        1.64009297        1.72182324        3.36191621
         -6.70300300        1.22939274        1.29246042        2.52185316
         -6.64234234        1.33421686        1.34303972        2.67725657
         -6.58168168        1.43072961        1.43695677        2.86768638
         -6.52102102        1.24716099        1.25450855        2.50166954
         -6.46036036        1.12817032        1.12125678        2.24942710
         -6.39969970        1.29581221        1.28056455        2.57637676
         -6.33903904        1.65366371        1.62971601        3.28337972
         -6.27837838        1.91463223        1.88696250        3.80159474
         -6.21771772        1.87669103        1.84864913        3.72534016
         -6.15705706        1.59643806        1.55669884        3.15313690