Siesta Version:                                        siesta-3.1
Architecture  : x86_64-unknown-linux-gnu--Intel
Compiler flags: mpif90 -O3 -xSSSE3 -axSSE4.2,SSE4.1 -ip
PARALLEL version
NetCDF support

* Running on   64 nodes in parallel
>> Start of run:  10-MAY-2012  17:40:26

                           ***********************       
                           *  WELCOME TO SIESTA  *       
                           ***********************       

reinit: Reading from standard input
************************** Dump of input data file ****************************
SystemName      optical
SystemLabel     optical
NumberOfAtoms   32
NumberOfSpecies 1
MD.TypeOfRun    CG
MD.NumCGsteps   0
MD.ConstantVolume  .true.
SolutionMethod  diagon
XC.functional   GGA
XC.authors      PBE
PAO.BasisSize   DZP
DM.NumberPulay  7
DM.MixingWeight 0.1
DirectPhi       .true.
SaveMemory      .true.
MeshCutoff      500 Ry
MaxSCFiterations 200
UseSaveData     .true.
WriteMullikenPop 1
OpticalCalculation      .true.
%block Optical.Mesh
 1 1 1
%endblock Optical.Mesh
Optical.PolarizationType  polarized
%block Optical.Vector
 0.0 0.0 1.0
%endblock Optical.Vector
Optical.Broaden         0.05 eV
Optical.EnergyMinimum   0.001 eV
Optical.EnergyMaximum   100.0 eV
%block ChemicalSpeciesLabel
 1  47   Ag
%endblock ChemicalSpeciesLabel
LatticeConstant 1.0 Ang
%block LatticeParameters
  22.534   24.472   23.649   90.0 90.0 90.0
%endblock LatticeParameters
AtomicCoordinatesFormat Ang
%block AtomicCoordinatesAndAtomicSpecies < struct.coor
%endblock AtomicCoordinatesAndAtomicSpecies
************************** End of input data file *****************************

reinit: -----------------------------------------------------------------------
reinit: System Name: optical
reinit: -----------------------------------------------------------------------
reinit: System Label: optical                                                     
reinit: -----------------------------------------------------------------------

initatom: Reading input for the pseudopotentials and atomic orbitals ----------
 Species number:            1  Label: Ag Atomic number:          47
Ground state valence configuration:   5s01  4d10
Reading pseudopotential information in formatted form from Ag.psf

Valence configuration for pseudopotential generation:
5s( 1.00) rc: 2.52
5p( 0.00) rc: 2.72
4d(10.00) rc: 2.52
4f( 0.00) rc: 2.52
For Ag, standard SIESTA heuristics set lmxkb to 3
 (one more than the basis l, including polarization orbitals).
Use PS.lmax or PS.KBprojectors blocks to override.

<basis_specs>
===============================================================================
Ag                   Z=  47    Mass=  107.87        Charge= 0.17977+309
Lmxo=2 Lmxkb= 3    BasisType=split      Semic=F
L=0  Nsemic=0  Cnfigmx=5
          n=1  nzeta=2  polorb=1
            splnorm:   0.15000    
               vcte:    0.0000    
               rinn:    0.0000    
                rcs:    0.0000      0.0000    
            lambdas:    1.0000      1.0000    
L=1  Nsemic=0  Cnfigmx=5
L=2  Nsemic=0  Cnfigmx=4
          n=1  nzeta=2  polorb=0
            splnorm:   0.15000    
               vcte:    0.0000    
               rinn:    0.0000    
                rcs:    0.0000      0.0000    
            lambdas:    1.0000      1.0000    
-------------------------------------------------------------------------------
L=0  Nkbl=1  erefs: 0.17977+309
L=1  Nkbl=1  erefs: 0.17977+309
L=2  Nkbl=1  erefs: 0.17977+309
L=3  Nkbl=1  erefs: 0.17977+309
===============================================================================
</basis_specs>

atom: Called for Ag                    (Z =  47)

read_vps: Pseudopotential generation method:
read_vps: ATM 3.2.2 Troullier-Martins                       
Total valence charge:   11.00000

xc_check: Exchange-correlation functional:
xc_check: GGA Perdew, Burke & Ernzerhof 1996
V l=0 = -2*Zval/r beyond r=  2.4592
V l=1 = -2*Zval/r beyond r=  2.6507
V l=2 = -2*Zval/r beyond r=  2.4592
V l=3 = -2*Zval/r beyond r=  2.4592
All V_l potentials equal beyond r=  2.6507
This should be close to max(r_c) in ps generation
All pots = -2*Zval/r beyond r=  2.6507

VLOCAL1: 99.0% of the norm of Vloc inside      6.178 Ry
VLOCAL1: 99.9% of the norm of Vloc inside     14.079 Ry
atom: Maximum radius for 4*pi*r*r*local-pseudopot. charge    3.19739
atom: Maximum radius for r*vlocal+2*Zval:    2.82168
GHOST: No ghost state for L =  0
GHOST: No ghost state for L =  1
GHOST: No ghost state for L =  2
GHOST: No ghost state for L =  3

KBgen: Kleinman-Bylander projectors: 
   l= 0   rc=  2.966357   el= -0.323666   Ekb=  3.565490   kbcos=  0.247453
   l= 1   rc=  3.003670   el= -0.054265   Ekb=  1.619308   kbcos=  0.223076
   l= 2   rc=  2.786631   el= -0.547066   Ekb= -7.840816   kbcos= -0.714112
   l= 3   rc=  3.079709   el=  0.002953   Ekb= -2.732950   kbcos= -0.012571

KBgen: Total number of  Kleinman-Bylander projectors:   16
atom: -------------------------------------------------------------------------

atom: SANKEY-TYPE ORBITALS:
atom: Selected multiple-zeta basis: split     

SPLIT: Orbitals with angular momentum L= 0

SPLIT: Basis orbitals for state 5s

SPLIT: PAO cut-off radius determined from an
SPLIT: energy shift=  0.020000 Ry

   izeta = 1
                 lambda =    1.000000
                     rc =    6.684855
                 energy =   -0.305483
                kinetic =    0.327133
    potential(screened) =   -0.632616
       potential(ionic) =   -8.088030

   izeta = 2
                 rmatch =    6.279837
              splitnorm =    0.150000
                 energy =   -0.253539
                kinetic =    0.499634
    potential(screened) =   -0.753173
       potential(ionic) =   -8.691029

SPLIT: Orbitals with angular momentum L= 2

SPLIT: Basis orbitals for state 4d

SPLIT: PAO cut-off radius determined from an
SPLIT: energy shift=  0.020000 Ry

   izeta = 1
                 lambda =    1.000000
                     rc =    3.954440
                 energy =   -0.527442
                kinetic =    6.210364
    potential(screened) =   -6.737807
       potential(ionic) =  -18.733043

   izeta = 2
                 rmatch =    2.490121
              splitnorm =    0.150000
                 energy =   -0.148928
                kinetic =    8.576261
    potential(screened) =   -8.725189
       potential(ionic) =  -21.658221

POLgen: Perturbative polarization orbital with L=  1

POLgen: Polarization orbital for state 5s

   izeta = 1
                     rc =    6.684855
                 energy =   -0.001728
                kinetic =    0.597115
    potential(screened) =   -0.598843
       potential(ionic) =   -7.554613
atom: Total number of Sankey-type orbitals: 15

atm_pop: Valence configuration (for local Pseudopot. screening):
 5s( 1.00)                                                            
 5p( 0.00)                                                            
 4d(10.00)                                                            
Vna: chval, zval:   11.00000  11.00000

Vna:  Cut-off radius for the neutral-atom potential:   6.684855

atom: _________________________________________________________________________

prinput: Basis input ----------------------------------------------------------

PAO.BasisType split     

%block ChemicalSpeciesLabel
    1   47 Ag                      # Species index, atomic number, species label
%endblock ChemicalSpeciesLabel

%block PAO.Basis                 # Define Basis set
Ag                    2                    # Species label, number of l-shells
 n=5   0   2 P   1                   # n, l, Nzeta, Polarization, NzetaPol
   6.685      6.280   
   1.000      1.000   
 n=4   2   2                         # n, l, Nzeta 
   3.954      2.490   
   1.000      1.000   
%endblock PAO.Basis

prinput: ----------------------------------------------------------------------

Dumping basis to NetCDF file Ag.ion.nc
coor:   Atomic-coordinates input format  =     Cartesian coordinates
coor:                                          (in Angstroms)

siesta: WARNING: XV file not found

siesta: Atomic coordinates (Bohr) and species
siesta:     18.97286  32.99463   3.15584  1        1
siesta:     24.43228  32.99463   3.15584  1        2
siesta:     13.51344  32.99463   3.15584  1        3
siesta:     21.70351  37.72273   3.15584  1        4
siesta:     21.70351  28.26653   3.15584  1        5
siesta:     16.24220  37.72273   3.15584  1        6
siesta:     16.24220  28.26653   3.15584  1        7
siesta:     18.97286  36.14670   7.61371  1        8
siesta:     18.97286  26.69050   7.61371  1        9
siesta:     21.70351  31.41860   7.61371  1       10
siesta:     16.24220  31.41860   7.61371  1       11
siesta:     24.43228  36.14670   7.61371  1       12
siesta:     13.51344  36.14670   7.61371  1       13
siesta:     21.70351  23.23230  24.35480  1       14
siesta:     16.24220  23.23230  24.35480  1       15
siesta:     18.97286  18.50421  24.35480  1       16
siesta:     18.97286  27.96040  24.35480  1       17
siesta:     13.51344  18.50421  24.35480  1       18
siesta:     24.43228  18.50421  24.35480  1       19
siesta:     24.43228  21.65627  28.81267  1       20
siesta:     13.51344  21.65627  28.81267  1       21
siesta:     21.70351  26.38437  28.81267  1       22
siesta:     21.70351  16.92817  28.81267  1       23
siesta:     16.24220  26.38437  28.81267  1       24
siesta:     16.24220  16.92817  28.81267  1       25
siesta:     18.97286  21.65627  28.81267  1       26
siesta:     18.97286  24.80833  33.27053  1       27
siesta:     18.97286  15.35214  33.27053  1       28
siesta:     21.70351  20.08024  33.27053  1       29
siesta:     16.24220  20.08024  33.27053  1       30
siesta:     24.43228  24.80833  33.27053  1       31
siesta:     13.51344  24.80833  33.27053  1       32

siesta: System type = molecule  

initatomlists: Number of atoms, orbitals, and projectors:     32   480   512

siesta: ******************** Simulation parameters ****************************
siesta:
siesta: The following are some of the parameters of the simulation.
siesta: A complete list of the parameters used, including default values,
siesta: can be found in file out.fdf
siesta:
redata: Non-Collinear-spin run           =     F
redata: SpinPolarized (Up/Down) run      =     F
redata: Number of spin components        =     1
redata: Long output                      =     F
redata: Number of Atomic Species         =        1
redata: Charge density info will appear in .RHO file
redata: Write Mulliken Pop.              =     Atomic and Orbital charges
redata: Mesh Cutoff                      =   500.0000  Ry
redata: Net charge of the system         =     0.0000 |e|
redata: Max. number of SCF Iter          =      200
redata: Performing Pulay mixing using    =     7 iterations
redata: Mix DM in first SCF step ?       =     F
redata: Write Pulay info on disk?        =     F
redata: Discard 1st Pulay DM after  kick =     F
redata: New DM Mixing Weight             =     0.1000
redata: New DM Occupancy tolerance       = 0.000000000001
redata: No kicks to SCF
redata: DM Mixing Weight for Kicks       =     0.5000
redata: DM Tolerance for SCF             =     0.000100
redata: Require Energy convergence for SCF =     F
redata: DM Energy tolerance for SCF      =     0.000100 eV
redata: Require Harris convergence for SCF =     F
redata: DM Harris energy tolerance for SCF =     0.000100 eV
redata: Using Saved Data (generic)   =     T
redata: Use continuation files for DM    =     T
redata: Neglect nonoverlap interactions  =     F
redata: Method of Calculation            =     Diagonalization
redata: Divide and Conquer               =     T
redata: Electronic Temperature           =     0.0019  Ry
redata: Fix the spin of the system       =     F
redata: Dynamics option                  =     CG coord. optimization
redata: Variable cell                    =     F
redata: Use continuation files for CG    =     T
redata: Max atomic displ per move        =     0.2000  Bohr
redata: Maximum number of CG moves       =        0
redata: Force tolerance                  =     0.0016  Ry/Bohr
redata: ***********************************************************************
Total number of electrons:   352.000000
Total ionic charge:   352.000000

* ProcessorY, Blocksize:    8   8

 Kpoints in:            1 . Kpoints trimmed:            1

siesta: k-grid: Number of k-points =     1
siesta: k-grid: Cutoff (effective) =    11.267 Ang
siesta: k-grid: Supercell and displacements
siesta: k-grid:    1   0   0      0.000
siesta: k-grid:    0   1   0      0.000
siesta: k-grid:    0   0   1      0.000

* Maximum dynamic memory allocated =     1 MB

siesta:                 ==============================
                            Begin CG move =      0
                        ==============================

outcell: Unit cell vectors (Ang):
       22.534000    0.000000    0.000000
        0.000000   24.472000    0.000000
        0.000000    0.000000   23.649000

outcell: Cell vector modules (Ang)   :   22.534000   24.472000   23.649000
outcell: Cell angles (23,13,12) (deg):     90.0000     90.0000     90.0000
outcell: Cell volume (Ang**3)        :  13041.2895
New_DM. Step:     1
Initializing Density Matrix...

InitMesh: MESH =   320 x   360 x   320 =    36864000
InitMesh: Mesh cutoff (required, used) =   500.000   506.030 Ry

* Maximum dynamic memory allocated =    80 MB

stepf: Fermi-Dirac step function

siesta: Program's energy decomposition (eV):
siesta: Ebs     =     -1317.495975
siesta: Eions   =     35531.607510
siesta: Ena     =       314.489247
siesta: Ekin    =     27181.985408
siesta: Enl     =    -18115.277726
siesta: DEna    =        -0.000262
siesta: DUscf   =         0.000000
siesta: DUext   =         0.000000
siesta: Exc     =     -5190.370490
siesta: eta*DQ  =         0.000000
siesta: Emadel  =         0.000000
siesta: Emeta   =         0.000000
siesta: Emolmec =         0.000000
siesta: Ekinion =         0.000000
siesta: Eharris =    -31462.622216
siesta: Etot    =    -31340.781333
siesta: FreeEng =    -31340.781333

siesta: iscf   Eharris(eV)      E_KS(eV)   FreeEng(eV)   dDmax  Ef(eV)
siesta:    1   -31462.6222   -31340.7813   -31340.7813  0.6925 -1.5518
timer: Routine,Calls,Time,% = IterSCF        1     896.429  91.00
elaps: Routine,Calls,Wall,% = IterSCF        1      13.998  91.42
siesta:    2   -31497.3915   -31377.8558   -31377.9039  0.8638 -4.4678
siesta:    3   -31430.8749   -31384.3292   -31384.4244  0.4883 -3.4350
siesta:    4   -31429.3692   -31387.0975   -31387.1595  0.4660 -3.2380
siesta:    5   -31428.7951   -31390.5849   -31390.6076  0.3399 -3.0954
siesta:    6   -31429.5173   -31418.0756   -31418.0885  0.1060 -2.6147
siesta:    7   -31428.2902   -31423.1266   -31423.1274  0.0775 -2.8099
siesta:    8   -31428.1740   -31426.0713   -31426.1055  0.0703 -2.8146
siesta:    9   -31428.1290   -31426.3355   -31426.3972  0.0357 -2.7934
siesta:   10   -31428.1383   -31426.8822   -31426.9575  0.0511 -2.8097
siesta:   11   -31428.1178   -31427.3027   -31427.3711  0.0200 -2.8020
siesta:   12   -31428.1158   -31427.5889   -31427.6641  0.0050 -2.8013
siesta:   13   -31428.1161   -31427.7545   -31427.8296  0.0016 -2.8004
siesta:   14   -31428.1159   -31427.8859   -31427.9606  0.0012 -2.7993
siesta:   15   -31427.7866   -31428.0680   -31428.1427  1.0470 -2.8031
siesta:   16   -31428.1160   -31428.0571   -31428.1306  0.0005 -2.7987
siesta:   17   -31427.7866   -31428.0657   -31428.1403  1.0469 -2.8032
siesta:   18   -31427.7866   -31428.0623   -31428.1357  1.0466 -2.8033
siesta:   19   -31428.1160   -31428.0649   -31428.1384  0.0004 -2.7988
siesta:   20   -31427.7867   -31428.1059   -31428.1805  1.0466 -2.8034
siesta:   21   -31427.7867   -31428.0995   -31428.1729  1.0465 -2.8035
siesta:   22   -31427.7866   -31428.1066   -31428.1801  1.0465 -2.8035
siesta:   23   -31427.7866   -31428.0868   -31428.1603  1.0461 -2.8035
siesta:   24   -31427.7866   -31428.0967   -31428.1702  1.0465 -2.8034
siesta:   25   -31427.7867   -31428.0922   -31428.1657  1.0463 -2.8034
siesta:   26   -31427.7866   -31428.0633   -31428.1368  1.0462 -2.8033
siesta:   27   -31428.1406   -31427.9223   -31427.9958  0.0972 -2.8183
siesta:   28   -31428.1179   -31426.8358   -31426.8996  0.1002 -2.8063
siesta:   29   -31428.1163   -31427.2895   -31427.3652  0.0893 -2.8042
siesta:   30   -31428.1158   -31427.8661   -31427.9412  0.0706 -2.8004
siesta:   31   -31428.1161   -31428.0368   -31428.1117  0.0611 -2.8000
siesta:   32   -31428.1160   -31428.0700   -31428.1446  0.0543 -2.7996
siesta:   33   -31428.1160   -31428.0966   -31428.1712  0.0480 -2.7993
siesta:   34   -31427.7866   -31428.1987   -31428.2734  1.0456 -2.8028
siesta:   35   -31428.1160   -31428.1063   -31428.1798  0.0448 -2.7992
siesta:   36   -31428.1160   -31428.1090   -31428.1836  0.0422 -2.7993
siesta:   37   -31428.1160   -31428.1033   -31428.1779  0.0406 -2.7992
siesta:   38   -31428.1160   -31428.1030   -31428.1776  0.0400 -2.7992
siesta:   39   -31428.1160   -31428.1043   -31428.1789  0.0391 -2.7992
siesta:   40   -31428.1160   -31428.1057   -31428.1803  0.0383 -2.7991
siesta:   41   -31428.1160   -31428.1068   -31428.1814  0.0378 -2.7991
siesta:   42   -31427.7866   -31428.1509   -31428.2255  1.0465 -2.8029
siesta:   43   -31428.1160   -31428.1057   -31428.1792  0.0379 -2.7991
siesta:   44   -31428.1160   -31428.1054   -31428.1800  0.0368 -2.7991
siesta:   45   -31428.1160   -31428.1052   -31428.1798  0.0365 -2.7991
siesta:   46   -31428.1160   -31428.1054   -31428.1800  0.0365 -2.7991
siesta:   47   -31428.1160   -31428.1056   -31428.1802  0.0362 -2.7991
siesta:   48   -31428.1160   -31428.1052   -31428.1798  0.0370 -2.7991
siesta:   49   -31428.1160   -31428.1057   -31428.1803  0.0362 -2.7991
siesta:   50   -31427.7866   -31428.1114   -31428.1860  1.0462 -2.8034
siesta:   51   -31428.1160   -31428.1050   -31428.1785  0.0366 -2.7991
siesta:   52   -31428.1160   -31428.1044   -31428.1790  0.0360 -2.7991
siesta:   53   -31428.1160   -31428.1044   -31428.1790  0.0352 -2.7991
siesta:   54   -31428.1160   -31428.1043   -31428.1790  0.0353 -2.7991
siesta:   55   -31428.1160   -31428.1044   -31428.1790  0.0356 -2.7991
siesta:   56   -31428.1160   -31428.1042   -31428.1788  0.0364 -2.7991
siesta:   57   -31428.1160   -31428.1052   -31428.1798  0.0333 -2.7991
siesta:   58   -31427.7866   -31428.1154   -31428.1900  1.0464 -2.8033
siesta:   59   -31428.1160   -31428.1049   -31428.1784  0.0341 -2.7991
siesta:   60   -31428.1160   -31428.1066   -31428.1812  0.0289 -2.7990
siesta:   61   -31428.1160   -31428.1076   -31428.1822  0.0259 -2.7990
siesta:   62   -31428.1160   -31428.1072   -31428.1818  0.0275 -2.7990
siesta:   63   -31428.1160   -31428.1075   -31428.1821  0.0269 -2.7990
siesta:   64   -31428.1160   -31428.1080   -31428.1827  0.0251 -2.7990
siesta:   65   -31428.1160   -31428.1082   -31428.1828  0.0248 -2.7990
siesta:   66   -31427.7866   -31428.1164   -31428.1910  1.0464 -2.8033
siesta:   67   -31428.1160   -31428.1082   -31428.1817  0.0247 -2.7990
siesta:   68   -31428.1160   -31428.1082   -31428.1828  0.0247 -2.7990
siesta:   69   -31427.7868   -31428.1090   -31428.1836  1.0252 -2.8035
siesta:   70   -31428.1252   -31428.0765   -31428.1499  0.1453 -2.8029
siesta:   71   -31428.2202   -31428.0785   -31428.1511  0.0838 -2.7937
siesta:   72   -31427.7867   -31428.1084   -31428.1381  1.0219 -2.8035
siesta:   73   -31427.7867   -31428.1084   -31428.1819  1.0219 -2.8035
siesta:   74   -31428.1238   -31428.0760   -31428.1495  0.1458 -2.8028
siesta:   75   -31428.2105   -31428.0783   -31428.1514  0.0848 -2.7942
siesta:   76   -31428.3292   -31428.0775   -31428.1103  0.1466 -2.7616
siesta:   77   -31428.3973   -31428.0726   -31428.1213  0.0916 -2.7853
siesta:   78   -31428.1169   -31428.0438   -31428.0469  0.2141 -2.8024
siesta:   79   -31428.1426   -31428.0506   -31428.1256  0.1623 -2.7983
siesta:   80   -31428.1159   -31428.0581   -31428.1181  0.1724 -2.8013
siesta:   81   -31428.1193   -31428.1216   -31428.1966  0.0132 -2.7975
siesta:   82   -31428.1172   -31428.1204   -31428.1927  0.0069 -2.7980
siesta:   83   -31428.1163   -31428.1193   -31428.1929  0.0026 -2.7985
siesta:   84   -31428.1161   -31428.1179   -31428.1922  0.0012 -2.7987
siesta:   85   -31427.7866   -31428.1164   -31428.1908  1.0465 -2.8032
siesta:   86   -31428.1160   -31428.0962   -31428.1697  0.0629 -2.7994
siesta:   87   -31428.1160   -31428.0963   -31428.1709  0.0624 -2.7994
siesta:   88   -31428.1160   -31428.0971   -31428.1717  0.0601 -2.7994
siesta:   89   -31428.1160   -31428.0988   -31428.1734  0.0547 -2.7993
siesta:   90   -31428.1160   -31428.0996   -31428.1742  0.0521 -2.7993
siesta:   91   -31428.1160   -31428.1013   -31428.1759  0.0467 -2.7993
siesta:   92   -31428.1160   -31428.1028   -31428.1775  0.0418 -2.7992
siesta:   93   -31427.7866   -31428.1160   -31428.1906  1.0463 -2.8033
siesta:   94   -31428.1160   -31428.1018   -31428.1753  0.0450 -2.7992
siesta:   95   -31428.1160   -31428.1015   -31428.1761  0.0461 -2.7992
siesta:   96   -31428.1160   -31428.1018   -31428.1764  0.0451 -2.7992
siesta:   97   -31428.1160   -31428.1021   -31428.1767  0.0442 -2.7992
siesta:   98   -31428.1160   -31428.1025   -31428.1771  0.0428 -2.7992
siesta:   99   -31428.1160   -31428.1030   -31428.1776  0.0413 -2.7992
siesta:  100   -31428.1160   -31428.1030   -31428.1776  0.0414 -2.7992
siesta:  101   -31427.7868   -31428.1043   -31428.1789  1.0108 -2.8036
siesta:  102   -31428.1260   -31428.0723   -31428.1456  0.1593 -2.8030
siesta:  103   -31428.2253   -31428.0745   -31428.1469  0.0928 -2.7936
siesta:  104   -31428.3344   -31428.0742   -31428.1023  0.1562 -2.7600
siesta:  105   -31428.1160   -31428.1084   -31428.1585  0.0243 -2.7990
siesta:  106   -31427.7868   -31428.1092   -31428.1838  1.0255 -2.8034
siesta:  107   -31428.1160   -31428.1034   -31428.1768  0.0401 -2.7992
siesta:  108   -31428.1160   -31428.1034   -31428.1780  0.0401 -2.7992
siesta:  109   -31427.7867   -31428.1088   -31428.1834  1.0229 -2.8035
siesta:  110   -31428.1160   -31428.1030   -31428.1765  0.0414 -2.7992
siesta:  111   -31427.7868   -31428.1043   -31428.1789  1.0108 -2.8036
siesta:  112   -31428.1160   -31428.1033   -31428.1766  0.0403 -2.7992
siesta:  113   -31427.7868   -31428.1046   -31428.1792  1.0118 -2.8036
siesta:  114   -31428.1260   -31428.0725   -31428.1458  0.1584 -2.8030
siesta:  115   -31428.2250   -31428.0748   -31428.1472  0.0922 -2.7936
siesta:  116   -31428.1160   -31428.1039   -31428.1321  0.0385 -2.7992
siesta:  117   -31428.1160   -31428.1031   -31428.1777  0.0410 -2.7992
siesta:  118   -31428.1160   -31428.1031   -31428.1777  0.0410 -2.7992
siesta:  119   -31428.1160   -31428.1072   -31428.1819  0.0280 -2.7990
siesta:  120   -31427.7867   -31428.1089   -31428.1835  1.0233 -2.8035
siesta:  121   -31428.1160   -31428.1036   -31428.1771  0.0395 -2.7992
siesta:  122   -31428.1160   -31428.1043   -31428.1789  0.0372 -2.7991
siesta:  123   -31428.1160   -31428.1046   -31428.1792  0.0362 -2.7991
siesta:  124   -31428.1160   -31428.1047   -31428.1793  0.0360 -2.7991
siesta:  125   -31428.1160   -31428.1048   -31428.1794  0.0356 -2.7991
siesta:  126   -31428.1160   -31428.1048   -31428.1794  0.0358 -2.7991
siesta:  127   -31428.1160   -31428.1049   -31428.1795  0.0353 -2.7991
siesta:  128   -31427.7866   -31428.1160   -31428.1906  1.0465 -2.8033
siesta:  129   -31428.1160   -31428.1043   -31428.1778  0.0372 -2.7991
siesta:  130   -31428.1160   -31428.1048   -31428.1795  0.0355 -2.7991
siesta:  131   -31428.1160   -31428.1058   -31428.1804  0.0326 -2.7991
siesta:  132   -31428.1160   -31428.1069   -31428.1815  0.0290 -2.7990
siesta:  133   -31428.1161   -31428.1077   -31428.1823  0.0265 -2.7990
siesta:  134   -31428.1160   -31428.1080   -31428.1826  0.0257 -2.7990
siesta:  135   -31427.7867   -31428.1086   -31428.1832  1.0223 -2.8035
siesta:  136   -31427.7867   -31428.1102   -31428.1838  1.0277 -2.8035
siesta:  137   -31428.1160   -31428.1077   -31428.1813  0.0264 -2.7990
siesta:  138   -31427.7868   -31428.1086   -31428.1832  1.0237 -2.8035
siesta:  139   -31428.1253   -31428.0761   -31428.1495  0.1467 -2.8029
siesta:  140   -31428.1161   -31428.1077   -31428.1803  0.0266 -2.7990
siesta:  141   -31427.7868   -31428.1085   -31428.1831  1.0235 -2.8035
siesta:  142   -31428.1253   -31428.0760   -31428.1494  0.1469 -2.8029
siesta:  143   -31428.2208   -31428.0781   -31428.1507  0.0849 -2.7937
siesta:  144   -31428.1161   -31428.1077   -31428.1372  0.0265 -2.7990
siesta:  145   -31427.7868   -31428.1085   -31428.1831  1.0236 -2.8035
siesta:  146   -31428.1253   -31428.0761   -31428.1494  0.1469 -2.8029
siesta:  147   -31428.1161   -31428.1077   -31428.1803  0.0265 -2.7990
siesta:  148   -31427.7868   -31428.1085   -31428.1831  1.0236 -2.8035
siesta:  149   -31428.1253   -31428.0761   -31428.1495  0.1468 -2.8029
siesta:  150   -31428.2207   -31428.0781   -31428.1507  0.0848 -2.7937
siesta:  151   -31428.3331   -31428.0774   -31428.1069  0.1465 -2.7603
siesta:  152   -31428.3974   -31428.0724   -31428.1221  0.0915 -2.7853
siesta:  153   -31428.2712   -31428.0810   -31428.0841  0.1271 -2.7823
siesta:  154   -31428.1161   -31428.1077   -31428.1505  0.0265 -2.7990
siesta:  155   -31428.1161   -31428.1077   -31428.1823  0.0265 -2.7990
siesta:  156   -31427.7865   -31428.1160   -31428.1906  1.0452 -2.8032
siesta:  157   -31428.1160   -31428.1078   -31428.1815  0.0261 -2.7990
siesta:  158   -31428.1160   -31428.1078   -31428.1824  0.0263 -2.7990
siesta:  159   -31428.1161   -31428.1076   -31428.1822  0.0267 -2.7990
siesta:  160   -31428.1161   -31428.1077   -31428.1823  0.0265 -2.7990
siesta:  161   -31428.1161   -31428.1077   -31428.1823  0.0266 -2.7990
siesta:  162   -31428.1160   -31428.1075   -31428.1821  0.0270 -2.7990
siesta:  163   -31427.7868   -31428.1084   -31428.1830  1.0232 -2.8035
siesta:  164   -31428.1160   -31428.1074   -31428.1807  0.0275 -2.7990
siesta:  165   -31428.1160   -31428.1074   -31428.1820  0.0276 -2.7990
siesta:  166   -31428.1160   -31428.1077   -31428.1823  0.0265 -2.7990
siesta:  167   -31428.1160   -31428.1074   -31428.1820  0.0274 -2.7990
siesta:  168   -31428.1160   -31428.1074   -31428.1820  0.0275 -2.7990
siesta:  169   -31428.1160   -31428.1072   -31428.1819  0.0279 -2.7990
siesta:  170   -31428.1160   -31428.1080   -31428.1826  0.0255 -2.7990
siesta:  171   -31427.7866   -31428.1160   -31428.1906  1.0464 -2.8033
siesta:  172   -31428.1160   -31428.1073   -31428.1808  0.0276 -2.7990
siesta:  173   -31428.1160   -31428.1072   -31428.1818  0.0281 -2.7990
siesta:  174   -31428.1160   -31428.1075   -31428.1821  0.0271 -2.7990
siesta:  175   -31428.1161   -31428.1077   -31428.1823  0.0266 -2.7990
siesta:  176   -31428.1161   -31428.1077   -31428.1823  0.0265 -2.7990
siesta:  177   -31427.7868   -31428.1085   -31428.1831  1.0236 -2.8035
siesta:  178   -31428.1253   -31428.0761   -31428.1494  0.1468 -2.8029
siesta:  179   -31428.2208   -31428.0781   -31428.1507  0.0848 -2.7937
siesta:  180   -31428.3331   -31428.0774   -31428.1069  0.1465 -2.7603
siesta:  181   -31428.3974   -31428.0724   -31428.1221  0.0915 -2.7853
siesta:  182   -31428.2712   -31428.0810   -31428.0841  0.1271 -2.7823
siesta:  183   -31428.1161   -31428.1077   -31428.1505  0.0265 -2.7990
siesta:  184   -31428.1161   -31428.1077   -31428.1823  0.0265 -2.7990
siesta:  185   -31428.1159   -31428.1163   -31428.1909  0.0007 -2.7986
siesta:  186   -31427.7865   -31428.1162   -31428.1909  1.0457 -2.8032
siesta:  187   -31428.1160   -31428.1077   -31428.1814  0.0264 -2.7990
siesta:  188   -31427.7868   -31428.1086   -31428.1832  1.0237 -2.8035
siesta:  189   -31428.1161   -31428.1077   -31428.1810  0.0266 -2.7990
siesta:  190   -31427.7868   -31428.1085   -31428.1831  1.0236 -2.8035
siesta:  191   -31428.1161   -31428.1077   -31428.1811  0.0265 -2.7990
siesta:  192   -31427.7868   -31428.1085   -31428.1832  1.0236 -2.8035
siesta:  193   -31428.1253   -31428.0761   -31428.1495  0.1468 -2.8029
siesta:  194   -31428.2208   -31428.0781   -31428.1507  0.0848 -2.7937
siesta:  195   -31428.3331   -31428.0774   -31428.1068  0.1465 -2.7603
siesta:  196   -31428.1160   -31428.1076   -31428.1574  0.0268 -2.7990
siesta:  197   -31428.1160   -31428.1076   -31428.1822  0.0267 -2.7990
siesta:  198   -31428.1160   -31428.1075   -31428.1821  0.0272 -2.7990
siesta:  199   -31428.1160   -31428.1075   -31428.1821  0.0272 -2.7990

siesta: E_KS(eV) =           -31428.1161

siesta: E_KS - E_eggbox =    -31428.1161

siesta: Atomic forces (eV/Ang):
----------------------------------------
   Tot    0.005174   -0.003847   -0.006493
----------------------------------------
   Max    1.316599
   Res    0.626234    sqrt( Sum f_i^2 / 3N )
----------------------------------------
   Max    1.316599    constrained

Stress-tensor-Voigt (kbar):        4.17        4.14        3.90        0.00        0.00        0.00
(Free)E + p*V (eV/cell)   -31461.3369
Target enthalpy (eV/cell)   -31428.1907
 
mulliken: Atomic and Orbital Populations:

Species: Ag                  
Atom  Qatom  Qorb
               5s      5s      4dxy    4dyz    4dz2    4dxz    4dx2-y2 4dxy    
               4dyz    4dz2    4dxz    4dx2-y2 5Ppy    5Ppz    5Ppx    
   1 11.077   0.405   0.412   1.869   1.907   1.896   1.907   1.869   0.033
              0.015   0.025   0.015   0.033   0.248   0.194   0.248
   2 10.986   0.649   0.279   1.942   1.943   1.926   1.973   1.910  -0.003
             -0.006  -0.003  -0.016   0.000   0.182   0.102   0.108
   3 10.986   0.649   0.279   1.942   1.943   1.926   1.973   1.910  -0.003
             -0.006  -0.003  -0.016   0.000   0.182   0.102   0.108
   4 10.985   0.648   0.279   1.919   1.986   1.926   1.929   1.933  -0.001
             -0.020  -0.003  -0.002  -0.002   0.114   0.102   0.176
   5 10.983   0.646   0.280   1.917   1.944   1.926   1.971   1.934   0.000
             -0.007  -0.003  -0.015  -0.002   0.139   0.102   0.151
   6 10.985   0.648   0.279   1.919   1.986   1.926   1.929   1.933  -0.001
             -0.020  -0.003  -0.002  -0.002   0.114   0.102   0.176
   7 10.983   0.646   0.280   1.917   1.944   1.926   1.971   1.934   0.000
             -0.007  -0.003  -0.015  -0.002   0.139   0.102   0.151
   8 10.997   0.453   0.347   1.900   1.926   1.922   1.914   1.886   0.013
              0.010   0.014   0.009   0.022   0.177   0.169   0.237
   9 10.992   0.787   0.234   1.925   1.991   1.939   1.942   1.985  -0.007
             -0.026  -0.016  -0.011  -0.026   0.087   0.080   0.108
  10 10.996   0.452   0.347   1.889   1.917   1.922   1.923   1.896   0.020
              0.009   0.014   0.009   0.015   0.222   0.169   0.192
  11 10.996   0.452   0.347   1.889   1.917   1.922   1.923   1.896   0.020
              0.009   0.014   0.009   0.015   0.222   0.169   0.192
  12 10.994   0.790   0.233   1.970   1.955   1.939   1.979   1.940  -0.021
             -0.015  -0.016  -0.022  -0.012   0.103   0.081   0.092
  13 10.994   0.790   0.233   1.970   1.955   1.939   1.979   1.940  -0.021
             -0.015  -0.016  -0.022  -0.012   0.103   0.081   0.092
  14 11.046   0.538   0.362   1.882   1.914   1.907   1.915   1.893   0.021
              0.011   0.015   0.012   0.017   0.206   0.162   0.191
  15 11.046   0.538   0.362   1.882   1.914   1.907   1.915   1.893   0.021
              0.011   0.015   0.012   0.017   0.206   0.162   0.191
  16 11.045   0.537   0.362   1.898   1.916   1.907   1.913   1.877   0.015
              0.012   0.015   0.011   0.023   0.184   0.162   0.214
  17 10.905   0.640   0.254   1.931   1.991   1.954   1.937   1.987  -0.008
             -0.025  -0.015  -0.010  -0.024   0.084   0.098   0.111
  18 10.903   0.638   0.254   1.973   1.950   1.954   1.977   1.945  -0.020
             -0.014  -0.014  -0.021  -0.012   0.104   0.098   0.091
  19 10.903   0.638   0.255   1.973   1.950   1.954   1.977   1.945  -0.020
             -0.014  -0.014  -0.021  -0.012   0.104   0.098   0.091
  20 11.045   0.537   0.363   1.925   1.877   1.879   1.927   1.902   0.010
              0.023   0.020   0.008   0.014   0.209   0.211   0.140
  21 11.045   0.537   0.363   1.925   1.877   1.879   1.927   1.902   0.010
              0.023   0.020   0.008   0.014   0.209   0.211   0.140
  22 11.045   0.537   0.363   1.908   1.914   1.879   1.889   1.920   0.013
              0.012   0.020   0.020   0.011   0.157   0.211   0.191
  23 11.045   0.537   0.363   1.908   1.914   1.879   1.889   1.920   0.013
              0.012   0.020   0.020   0.011   0.157   0.211   0.191
  24 11.045   0.537   0.363   1.908   1.914   1.879   1.889   1.920   0.013
              0.012   0.020   0.020   0.011   0.157   0.211   0.191
  25 11.045   0.537   0.363   1.908   1.914   1.879   1.889   1.920   0.013
              0.012   0.020   0.020   0.011   0.157   0.211   0.191
  26 11.078   0.173   0.548   1.887   1.892   1.881   1.892   1.887   0.029
              0.028   0.030   0.028   0.029   0.258   0.258   0.259
  27 11.046   0.538   0.362   1.898   1.916   1.907   1.913   1.877   0.015
              0.012   0.015   0.011   0.023   0.184   0.162   0.214
  28 10.904   0.639   0.254   1.931   1.991   1.954   1.937   1.987  -0.008
             -0.025  -0.014  -0.010  -0.024   0.084   0.098   0.111
  29 11.046   0.538   0.362   1.882   1.914   1.907   1.915   1.893   0.021
              0.011   0.015   0.012   0.017   0.206   0.162   0.191
  30 11.046   0.538   0.362   1.882   1.914   1.907   1.915   1.893   0.021
              0.011   0.015   0.012   0.017   0.206   0.162   0.191
  31 10.904   0.639   0.254   1.973   1.950   1.954   1.977   1.945  -0.020
             -0.014  -0.014  -0.021  -0.012   0.104   0.098   0.091
  32 10.904   0.639   0.254   1.973   1.950   1.954   1.977   1.945  -0.020
             -0.014  -0.014  -0.021  -0.012   0.104   0.098   0.091

mulliken: Qtot =      352.000

* Maximum dynamic memory allocated =    84 MB

siesta: Program's energy decomposition (eV):
siesta: Ebs     =     -2137.208593
siesta: Eions   =     35531.607510
siesta: Ena     =       314.489247
siesta: Ekin    =     25878.043422
siesta: Enl     =    -17203.452358
siesta: DEna    =       115.017567
siesta: DUscf   =        21.862725
siesta: DUext   =         0.000000
siesta: Exc     =     -5022.469208
siesta: eta*DQ  =         0.000000
siesta: Emadel  =         0.000000
siesta: Emeta   =         0.000000
siesta: Emolmec =         0.000000
siesta: Ekinion =         0.000000
siesta: Eharris =    -31428.116045
siesta: Etot    =    -31428.116114
siesta: FreeEng =    -31428.190727

siesta: Final energy (eV):
siesta:  Band Struct. =   -2137.208593
siesta:       Kinetic =   25878.043422
siesta:       Hartree =   80231.880931
siesta:    Ext. field =       0.000000
siesta:   Exch.-corr. =   -5022.469208
siesta:  Ion-electron = -181959.406749
siesta:       Ion-ion =   49443.835489
siesta:       Ekinion =       0.000000
siesta:         Total =  -31428.116114

siesta: Atomic forces (eV/Ang):
siesta:      1   -0.002906   -0.002437    0.206709
siesta:      2   -0.987549   -0.148311    0.859656
siesta:      3    0.988516   -0.148671    0.858196
siesta:      4   -0.626127   -0.782652    0.863026
siesta:      5   -0.372408    0.931868    0.860779
siesta:      6    0.635727   -0.783440    0.861336
siesta:      7    0.375432    0.932508    0.861508
siesta:      8   -0.006149   -0.372591   -0.849560
siesta:      9    0.001690    1.026235   -0.941785
siesta:     10   -0.331950    0.188546   -0.853952
siesta:     11    0.334770    0.190720   -0.852156
siesta:     12   -0.888072   -0.509397   -0.940831
siesta:     13    0.885650   -0.512120   -0.938792
siesta:     14   -0.262053   -0.146395    0.419882
siesta:     15    0.269837   -0.141435    0.419478
siesta:     16   -0.004337    0.298319    0.419101
siesta:     17   -0.002511   -1.316599    0.929670
siesta:     18    1.133304    0.655946    0.926095
siesta:     19   -1.136002    0.656646    0.927051
siesta:     20   -0.515183   -0.002443   -0.001508
siesta:     21    0.512438    0.002204    0.000126
siesta:     22   -0.263629   -0.447446    0.001516
siesta:     23   -0.263359    0.445296    0.001169
siesta:     24    0.269763   -0.448807    0.000121
siesta:     25    0.269523    0.445863    0.001728
siesta:     26   -0.006606    0.000259   -0.001142
siesta:     27   -0.004915   -0.299426   -0.421480
siesta:     28   -0.000502    1.310144   -0.928059
siesta:     29   -0.262655    0.144148   -0.419299
siesta:     30    0.269398    0.145533   -0.419093
siesta:     31   -1.138119   -0.658247   -0.928204
siesta:     32    1.134156   -0.657667   -0.927779
siesta: ----------------------------------------
siesta:    Tot    0.005174   -0.003847   -0.006493

siesta: Stress tensor (static) (eV/Ang**3):
siesta:     0.002603    0.000002    0.000002
siesta:     0.000002    0.002587   -0.000001
siesta:     0.000002   -0.000001    0.002435

siesta: Cell volume =      13041.289483 Ang**3

siesta: Pressure (static):
siesta:                Solid            Molecule  Units
siesta:          -0.00002768         -0.00000005  Ry/Bohr**3
siesta:          -0.00254163         -0.00000471  eV/Ang**3
siesta:          -4.07218662         -0.00754485  kBar
(Free)E+ p_basis*V_orbitals  =      -31405.320516
(Free)Eharris+ p_basis*V_orbitals  =      -31405.329087

siesta: Electric dipole (a.u.)  =    0.000030    0.440143   -1.021414
siesta: Electric dipole (Debye) =    0.000076    1.118732   -2.596176

Optical: Performing optical calculation: 

Optical: Polarization type       = polarized   
Optical: Minimum of energy range =   0.0001 Ry 
Optical: Maximum of energy range =   7.3498 Ry 
Optical: Gaussian broadening     =   0.0037 Ry 
Optical: Scissor operator        =   0.0000 Ry 
Optical: Number of bands         =      480
Optical: BZ mesh dimensions      =    1   1   1

Optical: electric field direction
Optical:      0.00000     0.00000     1.00000

Optical: Checking f-sum rule  0.369908
Optical: For insulators and closed shell systems
Optical: this number should be close to 1 if an enough
Optical: number of unoccupied bands have been included

* Maximum dynamic memory allocated : Node    0 =    72 MB
* Maximum dynamic memory allocated : Node    1 =    72 MB
* Maximum dynamic memory allocated : Node    2 =    72 MB
* Maximum dynamic memory allocated : Node    3 =    72 MB
* Maximum dynamic memory allocated : Node    4 =    72 MB
* Maximum dynamic memory allocated : Node    5 =    72 MB
* Maximum dynamic memory allocated : Node    6 =    72 MB
* Maximum dynamic memory allocated : Node    7 =    72 MB
* Maximum dynamic memory allocated : Node    8 =    72 MB
* Maximum dynamic memory allocated : Node    9 =    72 MB
* Maximum dynamic memory allocated : Node   10 =    72 MB
* Maximum dynamic memory allocated : Node   11 =    72 MB
* Maximum dynamic memory allocated : Node   12 =    72 MB
* Maximum dynamic memory allocated : Node   13 =    72 MB
* Maximum dynamic memory allocated : Node   14 =    72 MB
* Maximum dynamic memory allocated : Node   15 =    72 MB
* Maximum dynamic memory allocated : Node   16 =    72 MB
* Maximum dynamic memory allocated : Node   17 =    72 MB
* Maximum dynamic memory allocated : Node   18 =    72 MB
* Maximum dynamic memory allocated : Node   19 =    73 MB
* Maximum dynamic memory allocated : Node   20 =    76 MB
* Maximum dynamic memory allocated : Node   21 =    77 MB
* Maximum dynamic memory allocated : Node   22 =    74 MB
* Maximum dynamic memory allocated : Node   23 =    72 MB
* Maximum dynamic memory allocated : Node   24 =    72 MB
* Maximum dynamic memory allocated : Node   25 =    72 MB
* Maximum dynamic memory allocated : Node   26 =    72 MB
* Maximum dynamic memory allocated : Node   27 =    74 MB
* Maximum dynamic memory allocated : Node   28 =    82 MB
* Maximum dynamic memory allocated : Node   29 =    84 MB
* Maximum dynamic memory allocated : Node   30 =    77 MB
* Maximum dynamic memory allocated : Node   31 =    72 MB
* Maximum dynamic memory allocated : Node   32 =    75 MB
* Maximum dynamic memory allocated : Node   33 =    75 MB
* Maximum dynamic memory allocated : Node   34 =    71 MB
* Maximum dynamic memory allocated : Node   35 =    72 MB
* Maximum dynamic memory allocated : Node   36 =    77 MB
* Maximum dynamic memory allocated : Node   37 =    79 MB
* Maximum dynamic memory allocated : Node   38 =    75 MB
* Maximum dynamic memory allocated : Node   39 =    72 MB
* Maximum dynamic memory allocated : Node   40 =    80 MB
* Maximum dynamic memory allocated : Node   41 =    79 MB
* Maximum dynamic memory allocated : Node   42 =    72 MB
* Maximum dynamic memory allocated : Node   43 =    71 MB
* Maximum dynamic memory allocated : Node   44 =    72 MB
* Maximum dynamic memory allocated : Node   45 =    72 MB
* Maximum dynamic memory allocated : Node   46 =    71 MB
* Maximum dynamic memory allocated : Node   47 =    72 MB
* Maximum dynamic memory allocated : Node   48 =    77 MB
* Maximum dynamic memory allocated : Node   49 =    77 MB
* Maximum dynamic memory allocated : Node   50 =    72 MB
* Maximum dynamic memory allocated : Node   51 =    71 MB
* Maximum dynamic memory allocated : Node   52 =    71 MB
* Maximum dynamic memory allocated : Node   53 =    71 MB
* Maximum dynamic memory allocated : Node   54 =    71 MB
* Maximum dynamic memory allocated : Node   55 =    72 MB
* Maximum dynamic memory allocated : Node   56 =    72 MB
* Maximum dynamic memory allocated : Node   57 =    72 MB
* Maximum dynamic memory allocated : Node   58 =    71 MB
* Maximum dynamic memory allocated : Node   59 =    71 MB
* Maximum dynamic memory allocated : Node   60 =    70 MB
* Maximum dynamic memory allocated : Node   61 =    70 MB
* Maximum dynamic memory allocated : Node   62 =    70 MB
* Maximum dynamic memory allocated : Node   63 =    70 MB

* Maximum memory occured during redistribXY                   

timer: CPU execution times:
timer:  Routine       Calls   Time/call    Tot.time        %
timer:  siesta            1   86960.075   86960.075   100.00
timer:  Setup             1      60.810      60.810     0.07
timer:  bands             1       0.010       0.010     0.00
timer:  writewave         1       0.056       0.056     0.00
timer:  KSV_init          1       0.035       0.035     0.00
timer:  IterMD            1   86535.885   86535.885    99.51
timer:  hsparse           1       0.054       0.054     0.00
timer:  overlap           1      13.993      13.993     0.02
timer:  IterSCF         199     431.704   85909.149    98.79
timer:  kinefsm           2       6.601      13.203     0.02
timer:  nlefsm            2      25.042      50.083     0.06
timer:  DHSCF           200     376.591   75318.298    86.61
timer:  DHSCF1            1      50.174      50.174     0.06
timer:  DHSCF2            1     370.227     370.227     0.43
timer:  REORD          1602       0.117     187.443     0.22
timer:  POISON          201      49.964   10042.764    11.55
timer:  DHSCF3          200     373.848   74769.514    85.98
timer:  rhoofd          200      18.705    3740.964     4.30
timer:  cellXC          200      45.238    9047.662    10.40
timer:  vmat            200     128.968   25793.640    29.66
timer:  MolMec            2       0.000       0.000     0.00
timer:  diagon          199      38.387    7639.111     8.78
timer:  r-eigvec        199      37.403    7443.102     8.56
timer:  r-buildHS       199       0.003       0.617     0.00
timer:  rdiag           200      37.543    7508.501     8.63
timer:  rdiag1          200       0.913     182.557     0.21
timer:  rdiag2          200       8.513    1702.521     1.96
timer:  rdiag3          200      23.464    4692.764     5.40
timer:  rdiag4          200       1.620     323.981     0.37
timer:  r-buildD        199       0.963     191.726     0.22
timer:  DHSCF4            1      46.115      46.115     0.05
timer:  dfscf             1      42.802      42.802     0.05
timer:  overfsm           1       0.083       0.083     0.00
timer:  optical           1     336.885     336.885     0.39
timer:  phirphiopt        1     121.037     121.037     0.14
timer:  transrate         1     140.555     140.555     0.16
  

elaps: ELAPSED times:
elaps:  Routine       Calls   Time/call    Tot.time        %
elaps:  siesta            1    1360.052    1360.052   100.00
elaps:  Setup             1       0.815       0.815     0.06
elaps:  bands             1       0.000       0.000     0.00
elaps:  writewave         1       0.001       0.001     0.00
elaps:  KSV_init          1       0.000       0.000     0.00
elaps:  IterMD            1    1353.538    1353.538    99.52
elaps:  hsparse           1       0.001       0.001     0.00
elaps:  overlap           1       0.238       0.238     0.02
elaps:  IterSCF         199       6.752    1343.687    98.80
elaps:  kinefsm           2       0.110       0.221     0.02
elaps:  nlefsm            2       0.403       0.806     0.06
elaps:  DHSCF           200       5.701    1140.174    83.83
elaps:  DHSCF1            1       0.757       0.757     0.06
elaps:  DHSCF2            1       5.782       5.782     0.43
elaps:  REORD          1602       0.001       2.152     0.16
elaps:  POISON          201       0.776     156.004    11.47
elaps:  DHSCF3          200       5.661    1132.177    83.24
elaps:  rhoofd          200       0.039       7.718     0.57
elaps:  cellXC          200       0.713     142.576    10.48
elaps:  vmat            200       1.831     366.174    26.92
elaps:  MolMec            2       0.000       0.000     0.00
elaps:  diagon          199       0.789     157.049    11.55
elaps:  r-eigvec        199       0.773     153.885    11.31
elaps:  r-buildHS       199       0.000       0.008     0.00
elaps:  rdiag           200       0.774     154.723    11.38
elaps:  rdiag1          200       0.014       2.870     0.21
elaps:  rdiag2          200       0.133      26.650     1.96
elaps:  rdiag3          200       0.367      73.377     5.40
elaps:  rdiag4          200       0.026       5.123     0.38
elaps:  r-buildD        199       0.016       3.099     0.23
elaps:  DHSCF4            1       0.517       0.517     0.04
elaps:  dfscf             1       0.506       0.506     0.04
elaps:  overfsm           1       0.002       0.002     0.00
elaps:  optical           1       5.574       5.574     0.41
elaps:  phirphiopt        1       2.078       2.078     0.15
elaps:  transrate         1       2.197       2.197     0.16
  
>> End of run:  10-MAY-2012  18:03:07
