Siesta Version:                                        siesta-3.2-pl-3
Architecture  : x86_64-unknown-linux-gnu--Intel
Compiler flags: mpif90 -O3 -xSSSE3 -axSSE4.2,SSE4.1 -ip
PARALLEL version
NetCDF support

* Running on   64 nodes in parallel
>> Start of run:  30-AUG-2014   8:54:31

                           ***********************       
                           *  WELCOME TO SIESTA  *       
                           ***********************       

reinit: Reading from standard input
************************** Dump of input data file ****************************
SystemName      optical
SystemLabel     optical
NumberOfAtoms   1282
NumberOfSpecies 4
MD.TypeOfRun    CG
MD.NumCGsteps   0
MD.ConstantVolume  .true.
SolutionMethod  diagon
XC.functional   GGA
XC.authors      PBE
PAO.BasisSize   DZP
DM.NumberPulay  7
DM.MixingWeight 0.1
DirectPhi       .true.
SaveMemory      .true.
MeshCutoff      500 Ry
MaxSCFiterations 200
UseSaveData     .true.
WriteMullikenPop 1
PAO.EnergyShift 0.001 Ry
WriteDM.NetCDF .false.
WriteDMHS.NetCDF .false.
OpticalCalculation      .true.
%block Optical.Mesh
 1 1 1
%endblock Optical.Mesh
Optical.PolarizationType  polarized
%block Optical.Vector
 0.0 0.0 1.0
%endblock Optical.Vector
Optical.Broaden         0.05 eV
Optical.EnergyMinimum   0.001 eV
Optical.EnergyMaximum   100.0 eV
%block ChemicalSpeciesLabel
 1   1   H
 2   6   C
 3   9   F
 4  47   Ag
%endblock ChemicalSpeciesLabel
LatticeConstant 1.0 Ang
%block LatticeParameters
  22.534   24.472   23.649   90.0 90.0 90.0
%endblock LatticeParameters
AtomicCoordinatesFormat Ang
%block AtomicCoordinatesAndAtomicSpecies < struct.coor
%endblock AtomicCoordinatesAndAtomicSpecies
************************** End of input data file *****************************

reinit: -----------------------------------------------------------------------
reinit: System Name: optical
reinit: -----------------------------------------------------------------------
reinit: System Label: optical                                                     
reinit: -----------------------------------------------------------------------

initatom: Reading input for the pseudopotentials and atomic orbitals ----------
 Species number:            1  Label: H Atomic number:           1
 Species number:            2  Label: C Atomic number:           6
 Species number:            3  Label: F Atomic number:           9
 Species number:            4  Label: Ag Atomic number:          47
Ground state valence configuration:   1s01
Reading pseudopotential information in formatted form from H.psf

Valence configuration for pseudopotential generation:
1s( 1.00) rc: 1.33
2p( 0.00) rc: 1.33
3d( 0.00) rc: 0.37
4f( 0.00) rc: 1.33
Ground state valence configuration:   2s02  2p02
Reading pseudopotential information in formatted form from C.psf

Valence configuration for pseudopotential generation:
2s( 2.00) rc: 1.56
2p( 2.00) rc: 1.56
3d( 0.00) rc: 1.56
4f( 0.00) rc: 1.56
Ground state valence configuration:   2s02  2p05
Reading pseudopotential information in formatted form from F.psf

Valence configuration for pseudopotential generation:
2s( 2.00) rc: 1.41
2p( 5.00) rc: 1.41
3d( 0.00) rc: 1.41
4f( 0.00) rc: 1.41
Ground state valence configuration:   5s01  4d10
Reading pseudopotential information in formatted form from Ag.psf

Valence configuration for pseudopotential generation:
5s( 1.00) rc: 2.52
5p( 0.00) rc: 2.72
4d(10.00) rc: 2.52
4f( 0.00) rc: 2.52
For H, standard SIESTA heuristics set lmxkb to 2
 (one more than the basis l, including polarization orbitals).
Use PS.lmax or PS.KBprojectors blocks to override.
For C, standard SIESTA heuristics set lmxkb to 3
 (one more than the basis l, including polarization orbitals).
Use PS.lmax or PS.KBprojectors blocks to override.
For F, standard SIESTA heuristics set lmxkb to 3
 (one more than the basis l, including polarization orbitals).
Use PS.lmax or PS.KBprojectors blocks to override.
For Ag, standard SIESTA heuristics set lmxkb to 3
 (one more than the basis l, including polarization orbitals).
Use PS.lmax or PS.KBprojectors blocks to override.

<basis_specs>
===============================================================================
H                    Z=   1    Mass=  1.0100        Charge= 0.17977+309
Lmxo=0 Lmxkb= 2    BasisType=split      Semic=F
L=0  Nsemic=0  Cnfigmx=1
          n=1  nzeta=2  polorb=1
            splnorm:   0.15000    
               vcte:    0.0000    
               rinn:    0.0000    
                rcs:    0.0000      0.0000    
            lambdas:   1.00000     1.00000    
-------------------------------------------------------------------------------
L=0  Nkbl=1  erefs: 0.17977+309
L=1  Nkbl=1  erefs: 0.17977+309
L=2  Nkbl=1  erefs: 0.17977+309
===============================================================================
</basis_specs>

atom: Called for H                     (Z =   1)

read_vps: Pseudopotential generation method:
read_vps: ATM 3.2.2 Troullier-Martins                       
Total valence charge:    1.00000

xc_check: Exchange-correlation functional:
xc_check: GGA Perdew, Burke & Ernzerhof 1996
V l=0 = -2*Zval/r beyond r=  1.2656
V l=1 = -2*Zval/r beyond r=  1.2498
V l=2 = -2*Zval/r beyond r=  0.3563
All V_l potentials equal beyond r=  1.2656
This should be close to max(r_c) in ps generation
All pots = -2*Zval/r beyond r=  1.2656

VLOCAL1: 99.0% of the norm of Vloc inside     27.100 Ry
VLOCAL1: 99.9% of the norm of Vloc inside     61.762 Ry
atom: Maximum radius for 4*pi*r*r*local-pseudopot. charge    1.48935
atom: Maximum radius for r*vlocal+2*Zval:    1.24984
GHOST: No ghost state for L =  0
GHOST: No ghost state for L =  1
GHOST: No ghost state for L =  2

KBgen: Kleinman-Bylander projectors: 
   l= 0   rc=  1.398961   el= -0.477209   Ekb= -2.001853   kbcos= -0.352188
   l= 1   rc=  1.470814   el=  0.001006   Ekb= -0.423408   kbcos= -0.024395
   l= 2   rc=  1.489346   el=  0.001895   Ekb= -0.481957   kbcos= -0.001574

KBgen: Total number of  Kleinman-Bylander projectors:    9
atom: -------------------------------------------------------------------------

atom: SANKEY-TYPE ORBITALS:
atom: Selected multiple-zeta basis: split     

SPLIT: Orbitals with angular momentum L= 0

SPLIT: Basis orbitals for state 1s

SPLIT: PAO cut-off radius determined from an
SPLIT: energy shift=  0.001000 Ry

   izeta = 1
                 lambda =    1.000000
                     rc =    7.026209
                 energy =   -0.476258
                kinetic =    0.873901
    potential(screened) =   -1.350160
       potential(ionic) =   -1.868508

   izeta = 2
                 rmatch =    4.103729
              splitnorm =    0.150000
                 energy =   -0.388153
                kinetic =    1.411813
    potential(screened) =   -1.799966
       potential(ionic) =   -2.346436

POLgen: Perturbative polarization orbital with L=  1

POLgen: Polarization orbital for state 1s

   izeta = 1
                     rc =    7.026209
                 energy =    0.513491
                kinetic =    1.100165
    potential(screened) =   -0.586674
       potential(ionic) =   -1.048593
atom: Total number of Sankey-type orbitals:  5

atm_pop: Valence configuration (for local Pseudopot. screening):
 1s( 1.00)                                                            
Vna: chval, zval:    1.00000   1.00000

Vna:  Cut-off radius for the neutral-atom potential:   7.026209

atom: _________________________________________________________________________

<basis_specs>
===============================================================================
C                    Z=   6    Mass=  12.010        Charge= 0.17977+309
Lmxo=1 Lmxkb= 3    BasisType=split      Semic=F
L=0  Nsemic=0  Cnfigmx=2
          n=1  nzeta=2  polorb=0
            splnorm:   0.15000    
               vcte:    0.0000    
               rinn:    0.0000    
                rcs:    0.0000      0.0000    
            lambdas:   1.00000     1.00000    
L=1  Nsemic=0  Cnfigmx=2
          n=1  nzeta=2  polorb=1
            splnorm:   0.15000    
               vcte:    0.0000    
               rinn:    0.0000    
                rcs:    0.0000      0.0000    
            lambdas:   1.00000     1.00000    
-------------------------------------------------------------------------------
L=0  Nkbl=1  erefs: 0.17977+309
L=1  Nkbl=1  erefs: 0.17977+309
L=2  Nkbl=1  erefs: 0.17977+309
L=3  Nkbl=1  erefs: 0.17977+309
===============================================================================
</basis_specs>

atom: Called for C                     (Z =   6)

read_vps: Pseudopotential generation method:
read_vps: ATM 3.2.2 Troullier-Martins                       
Total valence charge:    4.00000

xc_check: Exchange-correlation functional:
xc_check: GGA Perdew, Burke & Ernzerhof 1996
V l=0 = -2*Zval/r beyond r=  1.5227
V l=1 = -2*Zval/r beyond r=  1.5227
V l=2 = -2*Zval/r beyond r=  1.5227
V l=3 = -2*Zval/r beyond r=  1.5227
All V_l potentials equal beyond r=  1.4851
This should be close to max(r_c) in ps generation
All pots = -2*Zval/r beyond r=  1.5227

VLOCAL1: 99.0% of the norm of Vloc inside     19.682 Ry
VLOCAL1: 99.9% of the norm of Vloc inside     44.856 Ry
atom: Maximum radius for 4*pi*r*r*local-pseudopot. charge    1.79142
atom: Maximum radius for r*vlocal+2*Zval:    1.54183
GHOST: No ghost state for L =  0
GHOST: No ghost state for L =  1
GHOST: No ghost state for L =  2
GHOST: No ghost state for L =  3

KBgen: Kleinman-Bylander projectors: 
   l= 0   rc=  1.661951   el= -1.010689   Ekb=  5.289847   kbcos=  0.316429
   l= 1   rc=  1.661951   el= -0.388490   Ekb= -4.102504   kbcos= -0.351025
   l= 2   rc=  1.747182   el=  0.001971   Ekb= -1.006005   kbcos= -0.008530
   l= 3   rc=  1.791422   el=  0.003065   Ekb= -0.421399   kbcos= -0.001072

KBgen: Total number of  Kleinman-Bylander projectors:   16
atom: -------------------------------------------------------------------------

atom: SANKEY-TYPE ORBITALS:
atom: Selected multiple-zeta basis: split     

SPLIT: Orbitals with angular momentum L= 0

SPLIT: Basis orbitals for state 2s

SPLIT: PAO cut-off radius determined from an
SPLIT: energy shift=  0.001000 Ry

   izeta = 1
                 lambda =    1.000000
                     rc =    5.801806
                 energy =   -1.009895
                kinetic =    0.828418
    potential(screened) =   -1.838313
       potential(ionic) =   -5.395016

   izeta = 2
                 rmatch =    3.475094
              splitnorm =    0.150000
                 energy =   -0.868818
                kinetic =    1.308521
    potential(screened) =   -2.177339
       potential(ionic) =   -5.999546

SPLIT: Orbitals with angular momentum L= 1

SPLIT: Basis orbitals for state 2p

SPLIT: PAO cut-off radius determined from an
SPLIT: energy shift=  0.001000 Ry

   izeta = 1
                 lambda =    1.000000
                     rc =    7.449784
                 energy =   -0.387666
                kinetic =    2.318076
    potential(screened) =   -2.705742
       potential(ionic) =   -6.097636

   izeta = 2
                 rmatch =    3.792903
              splitnorm =    0.150000
                 energy =   -0.276721
                kinetic =    3.399803
    potential(screened) =   -3.676524
       potential(ionic) =   -7.455899

POLgen: Perturbative polarization orbital with L=  2

POLgen: Polarization orbital for state 2p

   izeta = 1
                     rc =    7.449784
                 energy =    0.929908
                kinetic =    1.970732
    potential(screened) =   -1.040824
       potential(ionic) =   -3.695745
atom: Total number of Sankey-type orbitals: 13

atm_pop: Valence configuration (for local Pseudopot. screening):
 2s( 2.00)                                                            
 2p( 2.00)                                                            
Vna: chval, zval:    4.00000   4.00000

Vna:  Cut-off radius for the neutral-atom potential:   7.449784

atom: _________________________________________________________________________

<basis_specs>
===============================================================================
F                    Z=   9    Mass=  19.000        Charge= 0.17977+309
Lmxo=1 Lmxkb= 3    BasisType=split      Semic=F
L=0  Nsemic=0  Cnfigmx=2
          n=1  nzeta=2  polorb=0
            splnorm:   0.15000    
               vcte:    0.0000    
               rinn:    0.0000    
                rcs:    0.0000      0.0000    
            lambdas:   1.00000     1.00000    
L=1  Nsemic=0  Cnfigmx=2
          n=1  nzeta=2  polorb=1
            splnorm:   0.15000    
               vcte:    0.0000    
               rinn:    0.0000    
                rcs:    0.0000      0.0000    
            lambdas:   1.00000     1.00000    
-------------------------------------------------------------------------------
L=0  Nkbl=1  erefs: 0.17977+309
L=1  Nkbl=1  erefs: 0.17977+309
L=2  Nkbl=1  erefs: 0.17977+309
L=3  Nkbl=1  erefs: 0.17977+309
===============================================================================
</basis_specs>

atom: Called for F                     (Z =   9)

read_vps: Pseudopotential generation method:
read_vps: ATM 3.2.2 Troullier-Martins                       
Total valence charge:    7.00000

xc_check: Exchange-correlation functional:
xc_check: GGA Perdew, Burke & Ernzerhof 1996
V l=0 = -2*Zval/r beyond r=  1.3199
V l=1 = -2*Zval/r beyond r=  1.3199
V l=2 = -2*Zval/r beyond r=  1.3199
V l=3 = -2*Zval/r beyond r=  1.3199
All V_l potentials equal beyond r=  1.3199
This should be close to max(r_c) in ps generation
All pots = -2*Zval/r beyond r=  1.3199

VLOCAL1: 99.0% of the norm of Vloc inside     24.916 Ry
VLOCAL1: 99.9% of the norm of Vloc inside     56.784 Ry
atom: Maximum radius for 4*pi*r*r*local-pseudopot. charge    1.61221
atom: Maximum radius for r*vlocal+2*Zval:    1.38760
GHOST: No ghost state for L =  0
GHOST: No ghost state for L =  1
GHOST: No ghost state for L =  2
GHOST: No ghost state for L =  3

KBgen: Kleinman-Bylander projectors: 
   l= 0   rc=  1.495695   el= -2.197581   Ekb=  5.601452   kbcos=  0.238748
   l= 1   rc=  1.458760   el= -0.816694   Ekb= -9.171639   kbcos= -0.518972
   l= 2   rc=  1.552860   el=  0.001997   Ekb= -1.845583   kbcos= -0.004774
   l= 3   rc=  1.592177   el=  0.003102   Ekb= -0.701684   kbcos= -0.000616

KBgen: Total number of  Kleinman-Bylander projectors:   16
atom: -------------------------------------------------------------------------

atom: SANKEY-TYPE ORBITALS:
atom: Selected multiple-zeta basis: split     

SPLIT: Orbitals with angular momentum L= 0

SPLIT: Basis orbitals for state 2s

SPLIT: PAO cut-off radius determined from an
SPLIT: energy shift=  0.001000 Ry

   izeta = 1
                 lambda =    1.000000
                     rc =    4.066195
                 energy =   -2.196755
                kinetic =    1.966455
    potential(screened) =   -4.163210
       potential(ionic) =  -14.868929

   izeta = 2
                 rmatch =    2.259523
              splitnorm =    0.150000
                 energy =   -1.883468
                kinetic =    3.053766
    potential(screened) =   -4.937234
       potential(ionic) =  -16.545925

SPLIT: Orbitals with angular momentum L= 1

SPLIT: Basis orbitals for state 2p

SPLIT: PAO cut-off radius determined from an
SPLIT: energy shift=  0.001000 Ry

   izeta = 1
                 lambda =    1.000000
                     rc =    5.221176
                 energy =   -0.815825
                kinetic =    5.800203
    potential(screened) =   -6.616028
       potential(ionic) =  -16.867051

   izeta = 2
                 rmatch =    2.375385
              splitnorm =    0.150000
                 energy =   -0.513701
                kinetic =    8.562067
    potential(screened) =   -9.075768
       potential(ionic) =  -20.580843

POLgen: Perturbative polarization orbital with L=  2

POLgen: Polarization orbital for state 2p

   izeta = 1
                     rc =    5.221176
                 energy =    2.534714
                kinetic =    5.071044
    potential(screened) =   -2.536330
       potential(ionic) =  -10.352162
atom: Total number of Sankey-type orbitals: 13

atm_pop: Valence configuration (for local Pseudopot. screening):
 2s( 2.00)                                                            
 2p( 5.00)                                                            
Vna: chval, zval:    7.00000   7.00000

Vna:  Cut-off radius for the neutral-atom potential:   5.221176

atom: _________________________________________________________________________

<basis_specs>
===============================================================================
Ag                   Z=  47    Mass=  107.87        Charge= 0.17977+309
Lmxo=2 Lmxkb= 3    BasisType=split      Semic=F
L=0  Nsemic=0  Cnfigmx=5
          n=1  nzeta=2  polorb=1
            splnorm:   0.15000    
               vcte:    0.0000    
               rinn:    0.0000    
                rcs:    0.0000      0.0000    
            lambdas:   1.00000     1.00000    
L=1  Nsemic=0  Cnfigmx=5
L=2  Nsemic=0  Cnfigmx=4
          n=1  nzeta=2  polorb=0
            splnorm:   0.15000    
               vcte:    0.0000    
               rinn:    0.0000    
                rcs:    0.0000      0.0000    
            lambdas:   1.00000     1.00000    
-------------------------------------------------------------------------------
L=0  Nkbl=1  erefs: 0.17977+309
L=1  Nkbl=1  erefs: 0.17977+309
L=2  Nkbl=1  erefs: 0.17977+309
L=3  Nkbl=1  erefs: 0.17977+309
===============================================================================
</basis_specs>

atom: Called for Ag                    (Z =  47)

read_vps: Pseudopotential generation method:
read_vps: ATM 3.2.2 Troullier-Martins                       
Total valence charge:   11.00000

xc_check: Exchange-correlation functional:
xc_check: GGA Perdew, Burke & Ernzerhof 1996
V l=0 = -2*Zval/r beyond r=  2.4592
V l=1 = -2*Zval/r beyond r=  2.6507
V l=2 = -2*Zval/r beyond r=  2.4592
V l=3 = -2*Zval/r beyond r=  2.4592
All V_l potentials equal beyond r=  2.6507
This should be close to max(r_c) in ps generation
All pots = -2*Zval/r beyond r=  2.6507

VLOCAL1: 99.0% of the norm of Vloc inside      6.178 Ry
VLOCAL1: 99.9% of the norm of Vloc inside     14.079 Ry
atom: Maximum radius for 4*pi*r*r*local-pseudopot. charge    3.19739
atom: Maximum radius for r*vlocal+2*Zval:    2.82168
GHOST: No ghost state for L =  0
GHOST: No ghost state for L =  1
GHOST: No ghost state for L =  2
GHOST: No ghost state for L =  3

KBgen: Kleinman-Bylander projectors: 
   l= 0   rc=  2.966357   el= -0.323666   Ekb=  3.565490   kbcos=  0.247453
   l= 1   rc=  3.003670   el= -0.054265   Ekb=  1.619308   kbcos=  0.223076
   l= 2   rc=  2.786631   el= -0.547066   Ekb= -7.840816   kbcos= -0.714112
   l= 3   rc=  3.079709   el=  0.002953   Ekb= -2.732950   kbcos= -0.012571

KBgen: Total number of  Kleinman-Bylander projectors:   16
atom: -------------------------------------------------------------------------

atom: SANKEY-TYPE ORBITALS:
atom: Selected multiple-zeta basis: split     

SPLIT: Orbitals with angular momentum L= 0

SPLIT: Basis orbitals for state 5s

SPLIT: PAO cut-off radius determined from an
SPLIT: energy shift=  0.001000 Ry

   izeta = 1
                 lambda =    1.000000
                     rc =    9.486283
                 energy =   -0.322725
                kinetic =    0.270535
    potential(screened) =   -0.593260
       potential(ionic) =   -7.743453

   izeta = 2
                 rmatch =    6.768941
              splitnorm =    0.150000
                 energy =   -0.277703
                kinetic =    0.444695
    potential(screened) =   -0.722398
       potential(ionic) =   -8.538416

SPLIT: Orbitals with angular momentum L= 2

SPLIT: Basis orbitals for state 4d

SPLIT: PAO cut-off radius determined from an
SPLIT: energy shift=  0.001000 Ry

   izeta = 1
                 lambda =    1.000000
                     rc =    5.899358
                 energy =   -0.546288
                kinetic =    5.940648
    potential(screened) =   -6.486936
       potential(ionic) =  -18.280755

   izeta = 2
                 rmatch =    2.650723
              splitnorm =    0.150000
                 energy =   -0.238526
                kinetic =    8.222011
    potential(screened) =   -8.460537
       potential(ionic) =  -21.296963

POLgen: Perturbative polarization orbital with L=  1

POLgen: Polarization orbital for state 5s

   izeta = 1
                     rc =    9.486283
                 energy =   -0.053026
                kinetic =    0.478302
    potential(screened) =   -0.531328
       potential(ionic) =   -7.012902
atom: Total number of Sankey-type orbitals: 15

atm_pop: Valence configuration (for local Pseudopot. screening):
 5s( 1.00)                                                            
 5p( 0.00)                                                            
 4d(10.00)                                                            
Vna: chval, zval:   11.00000  11.00000

Vna:  Cut-off radius for the neutral-atom potential:   9.486283

atom: _________________________________________________________________________

prinput: Basis input ----------------------------------------------------------

PAO.BasisType split     

%block ChemicalSpeciesLabel
    1    1 H                       # Species index, atomic number, species label
    2    6 C                       # Species index, atomic number, species label
    3    9 F                       # Species index, atomic number, species label
    4   47 Ag                      # Species index, atomic number, species label
%endblock ChemicalSpeciesLabel

%block PAO.Basis                 # Define Basis set
H                     1                    # Species label, number of l-shells
 n=1   0   2 P   1                   # n, l, Nzeta, Polarization, NzetaPol
   7.026      4.104   
   1.000      1.000   
C                     2                    # Species label, number of l-shells
 n=2   0   2                         # n, l, Nzeta 
   5.802      3.475   
   1.000      1.000   
 n=2   1   2 P   1                   # n, l, Nzeta, Polarization, NzetaPol
   7.450      3.793   
   1.000      1.000   
F                     2                    # Species label, number of l-shells
 n=2   0   2                         # n, l, Nzeta 
   4.066      2.260   
   1.000      1.000   
 n=2   1   2 P   1                   # n, l, Nzeta, Polarization, NzetaPol
   5.221      2.375   
   1.000      1.000   
Ag                    2                    # Species label, number of l-shells
 n=5   0   2 P   1                   # n, l, Nzeta, Polarization, NzetaPol
   9.486      6.769   
   1.000      1.000   
 n=4   2   2                         # n, l, Nzeta 
   5.899      2.651   
   1.000      1.000   
%endblock PAO.Basis

prinput: ----------------------------------------------------------------------

Dumping basis to NetCDF file H.ion.nc
Dumping basis to NetCDF file C.ion.nc
Dumping basis to NetCDF file F.ion.nc
Dumping basis to NetCDF file Ag.ion.nc
coor:   Atomic-coordinates input format  =     Cartesian coordinates
coor:                                          (in Angstroms)

siesta: WARNING: XV file not found

siesta: Atomic coordinates (Bohr) and species
siesta:     26.12925  38.06855  33.64470  2        1
siesta:     24.31323  37.22762  34.17760  1        2
siesta:     25.80422  39.86757  32.71117  1        3
siesta:     27.25931  38.35957  35.33978  1        4
siesta:     27.58245  36.31110  31.81733  2        5
siesta:     26.17083  35.94261  29.69328  3        6
siesta:     29.63470  37.65470  31.03876  3        7
siesta:     28.57456  33.73918  32.74519  2        8
siesta:     29.49675  32.87180  31.12758  1        9
siesta:     30.05233  34.08311  34.16815  1       10
siesta:     26.72452  31.73985  33.83556  2       11
siesta:     24.64204  31.78710  32.35779  3       12
siesta:     27.75820  29.42116  33.41604  3       13
siesta:     25.93839  31.84946  36.64180  2       14
siesta:     27.41238  30.94050  37.75485  1       15
siesta:     25.92705  33.85635  37.16526  1       16
siesta:     23.38915  30.71184  37.51864  2       17
siesta:     21.62792  32.56755  37.28620  3       18
siesta:     22.68239  28.89581  35.81977  3       19
siesta:     23.05845  29.54588  40.18315  2       20
siesta:     23.35513  31.07467  41.52297  1       21
siesta:     21.11203  28.93739  40.34945  1       22
siesta:     24.68172  27.35191  41.11857  2       23
siesta:     26.97018  28.31189  41.75163  3       24
siesta:     23.65560  26.53366  43.33333  3       25
siesta:     25.12014  25.00676  39.41970  2       26
siesta:     23.31356  24.10158  39.13246  1       27
siesta:     25.75509  25.75131  37.60745  1       28
siesta:     27.02309  22.91861  40.19071  2       29
siesta:     26.40704  22.17972  42.55854  3       30
siesta:     26.52043  20.86070  38.76586  3       31
siesta:     29.88414  23.40805  40.14725  2       32
siesta:     30.30177  24.59102  41.77619  1       33
siesta:     30.79499  21.59769  40.48929  1       34
siesta:     31.18238  24.60802  37.83233  2       35
siesta:     30.71751  27.14026  38.00052  3       36
siesta:     33.71840  24.45496  38.14792  3       37
siesta:     30.50208  23.81245  35.11302  2       38
siesta:     28.52354  23.22474  35.09790  1       39
siesta:     30.64192  25.49431  33.93194  1       40
siesta:     31.96095  21.71485  33.72218  2       41
siesta:     33.84690  22.85247  32.41071  3       42
siesta:     33.25352  20.30889  35.45506  3       43
siesta:     30.61169  19.93473  31.85702  2       44
siesta:     29.31155  21.07612  30.70806  1       45
siesta:     32.07622  19.19396  30.60224  1       46
siesta:     29.08668  17.66895  32.83967  2       47
siesta:     27.14215  18.56657  34.28343  3       48
siesta:     27.86780  16.66550  30.80822  3       49
siesta:     30.42838  15.51655  34.25130  2       50
siesta:     29.97107  13.81579  33.18171  1       51
siesta:     32.43716  15.84914  34.07367  1       52
siesta:     29.86902  14.92317  37.04810  2       53
siesta:     30.26398  17.06234  38.38980  3       54
siesta:     27.34624  14.42240  37.26730  3       55
siesta:     31.30711  12.78589  38.40870  2       56
siesta:     31.86646  11.41773  36.95172  1       57
siesta:     33.05888  13.59658  39.15703  1       58
siesta:     30.07878  11.22687  40.55921  2       59
siesta:     29.22463  12.90494  42.28075  3       60
siesta:     27.89615  10.17807  39.68993  3       61
siesta:     31.52253   9.11982  42.02564  2       62
siesta:     31.35057   9.55635  44.04197  1       63
siesta:     30.50208   7.34348  41.71383  1       64
siesta:     34.33634   8.50377  41.49462  2       65
siesta:     34.92026   6.28145  42.66625  3       66
siesta:     34.55177   7.95197  38.99262  3       67
siesta:     36.49441  10.34625  42.12390  2       68
siesta:     38.19516   9.17840  42.19004  1       69
siesta:     36.72684  11.65961  40.54409  1       70
siesta:     36.42071  11.89961  44.60700  2       71
siesta:     35.35490  10.48609   1.76123  3       72
siesta:     38.86034  12.15283   0.72188  3       73
siesta:     35.14514  14.54523   0.00378  2       74
siesta:     33.29888  14.38082  43.80009  1       75
siesta:     34.79365  14.97609   1.98610  1       76
siesta:     36.47551  16.86203  43.49395  2       77
siesta:     38.48240  16.05323  42.12201  3       78
siesta:     34.79743  17.76910  41.75729  3       79
siesta:     37.28998  19.14860   0.40629  2       80
siesta:     37.66415  20.66983  43.74718  1       81
siesta:     35.62513  19.68528   1.50800  1       82
siesta:     39.58978  19.01632   2.19208  2       83
siesta:     40.93715  16.89416   1.68753  3       84
siesta:     41.12424  20.93250   1.47399  3       85
siesta:     39.29498  19.22419   5.08714  2       86
siesta:     41.18093  19.38860   5.90918  1       87
siesta:     38.33878  21.01565   5.40840  1       88
siesta:     37.88335  17.19840   6.63861  2       89
siesta:     37.70572  18.06012   9.03856  3       90
siesta:     35.45128  17.20407   5.81847  3       91
siesta:     38.68082  14.38838   6.75577  2       92
siesta:     37.53753  13.52478   8.22598  1       93
siesta:     38.09878  13.53233   4.99077  1       94
siesta:     41.44360  13.50588   7.20364  2       95
siesta:      0.43653  15.37104   6.34003  3       96
siesta:     41.85934  13.41517   9.73587  3       97
siesta:     42.46594  11.03223   6.04524  2       98
siesta:     42.41492  11.26655   4.01378  1       99
siesta:      1.87272  10.89617   6.57814  1      100
siesta:     41.28108   8.44519   6.71042  2      101
siesta:     42.31665   7.67229   8.91384  3      102
siesta:     38.81499   8.85337   7.26411  3      103
siesta:     41.43982   6.29846   4.74321  2      104
siesta:     40.86534   7.08270   2.92341  1      105
siesta:      0.84849   5.74666   4.60337  1      106
siesta:     39.91103   3.84937   5.14762  2      107
siesta:     41.00707   1.97665   3.74544  3      108
siesta:     40.18693   3.10860   7.57592  3      109
siesta:     37.07644   3.80213   4.45409  2      110
siesta:     36.06355   4.86794   5.88839  1      111
siesta:     36.90259   4.84904   2.67585  1      112
siesta:     35.63080   1.26990   4.11771  2      113
siesta:     33.13636   1.78579   4.33692  3      114
siesta:     35.93694   0.53668   1.67808  3      115
siesta:     36.22040  45.16258   5.77312  2      116
siesta:     37.75485  44.14024   4.84337  1      117
siesta:     36.91581  45.86178   7.58725  1      118
siesta:     34.08500  43.27664   6.42318  2      119
siesta:     35.16782  41.31132   7.62883  3      120
siesta:     32.61102  44.41614   8.18252  3      121
siesta:     32.30299  42.21272   4.35393  2      122
siesta:     30.35657  42.64169   4.90195  1      123
siesta:     32.69983  43.27852   2.63806  1      124
siesta:     32.35590  39.39892   3.59237  2      125
siesta:     31.12758  38.04020   5.40462  3      126
siesta:     30.89514  39.18538   1.51556  3      127
siesta:     34.87113  38.03642   3.02734  2      128
siesta:     36.27520  39.48206   2.65696  1      129
siesta:     35.42482  37.00274   4.72243  1      130
siesta:     35.12246  36.15992   0.79369  2      131
siesta:     34.92971  37.55454  43.32577  3      132
siesta:     37.55643  35.34167   0.79369  3      133
siesta:     33.40470  33.80721   0.54424  2      134
siesta:     33.75619  32.66204   2.23177  1      135
siesta:     31.45261  34.47240   0.63684  1      136
siesta:     33.59556  32.08189  42.88546  2      137
siesta:     31.62647  32.70361  41.31888  3      138
siesta:     35.65348  32.70550  41.44549  3      139
siesta:     33.51431  29.17738  43.15947  2      140
siesta:     31.56411  28.68227  43.65647  1      141
siesta:     33.88658  28.44228  41.29809  1      142
siesta:     35.27931  27.70718   0.28724  2      143
siesta:     34.41004  27.98119   2.68719  3      144
siesta:     34.92215  25.19573  44.51819  3      145
siesta:     38.16681  28.14559   0.30803  2      146
siesta:     39.04176  26.31256  44.51441  1      147
siesta:     38.66381  29.46840  43.48073  1      148
siesta:     39.47828  29.10935   2.73443  2      149
siesta:     41.86312  29.76509   2.04279  3      150
siesta:     38.39358  31.32222   3.42796  3      151
siesta:     39.76741  27.37458   5.07014  2      152
siesta:     38.14981  26.10091   5.00211  1      153
siesta:     41.46061  26.25398   4.78479  1      154
siesta:     39.90158  28.45173   7.81213  2      155
siesta:     37.98351  30.12036   8.21653  3      156
siesta:     39.31010  26.49775   9.39383  3      157
siesta:     42.36768  29.65548   8.86471  2      158
siesta:     42.44893  29.25864  10.89050  1      159
siesta:      1.38706  28.67283   7.98977  1      160
siesta:      0.23811  32.50708   8.56613  2      161
siesta:      2.72121  32.93227   8.92896  3      162
siesta:     42.49429  33.14392   6.11327  3      163
siesta:     41.33211  34.42893  10.14972  2      164
siesta:     39.53120  34.70105   9.17462  1      165
siesta:     40.93526  33.59367  12.00921  1      166
siesta:     42.41114  37.09534  10.67696  2      167
siesta:     40.44393  38.53720  11.49521  3      168
siesta:      1.35682  36.95361  12.73298  3      169
siesta:      1.30580  38.59389   8.65306  2      170
siesta:      3.03490  39.23451   9.55446  1      171
siesta:      1.82548  37.27297   7.15829  1      172
siesta:      0.14740  40.93526   7.37938  2      173
siesta:      1.56658  41.41336   5.27801  3      174
siesta:     40.48173  40.17559   6.41562  3      175
siesta:     42.29398  43.45049   8.81369  2      176
siesta:     41.68926  44.80353   7.37749  1      177
siesta:     40.72550  43.18215  10.11760  1      178
siesta:      1.87650  44.71472  10.32547  2      179
siesta:      0.97510   0.61983  11.40261  3      180
siesta:      2.40373  43.19160  12.31157  3      181
siesta:      4.46165  45.33644   9.11415  2      182
siesta:      5.64650  46.12445  10.58436  1      183
siesta:      5.30824  43.55631   8.53968  1      184
siesta:      4.59960   0.91085   6.82758  2      185
siesta:      3.01789   0.07559   5.00967  3      186
siesta:      3.57347   3.14640   7.57025  3      187
siesta:      7.15640   1.50611   5.57658  2      188
siesta:      7.19041   3.54513   5.25722  1      189
siesta:      8.62471   1.09604   6.95608  1      190
siesta:      7.96898   0.24189   3.06703  2      191
siesta:      6.85404   1.58737   1.18108  3      192
siesta:     10.47287   0.74455   2.76656  3      193
siesta:      7.50033  43.66970   2.50767  2      194
siesta:      5.46509  43.33144   2.49255  1      195
siesta:      8.20519  43.39380   0.57259  1      196
siesta:      8.64550  41.55320   4.21220  2      197
siesta:      9.97587  42.68704   6.07547  3      198
siesta:      6.68396  40.45338   5.47454  3      199
siesta:     10.22720  39.36490   3.11994  2      200
siesta:     10.50121  38.02886   4.66385  1      201
siesta:      9.00266  38.42949   1.71209  1      202
siesta:     12.87093  39.85434   1.95398  2      203
siesta:     13.12793  42.38090   1.46832  3      204
siesta:     14.63216  39.38758   3.77378  3      205
siesta:     13.79879  38.40681  44.29331  2      206
siesta:     12.57802  38.97562  42.70972  1      207
siesta:     15.68473  39.11357  43.83221  1      208
siesta:     13.91784  35.49096  44.30276  2      209
siesta:     11.86560  34.65948   0.91841  3      210
siesta:     13.48320  34.65570  41.91225  3      211
siesta:     16.25921  34.08122   0.64251  2      212
siesta:     16.83369  32.79621  43.86056  1      213
siesta:     17.78611  35.43616   0.90896  1      214
siesta:     16.05134  32.52031   3.12372  2      215
siesta:     14.19752  30.80444   2.78924  3      216
siesta:     18.16405  31.06522   3.27868  3      217
siesta:     15.68662  33.87902   5.68808  2      218
siesta:     17.28911  35.14892   5.88272  1      219
siesta:     13.96319  35.00908   5.56147  1      220
siesta:     15.49387  32.38047   8.18063  2      221
siesta:     17.62548  30.97451   8.43196  3      222
siesta:     15.66584  34.10957  10.05902  3      223
siesta:     13.23943  30.61924   8.75510  2      224
siesta:     12.81613  29.57989   7.02789  1      225
siesta:     13.92351  29.23596  10.13461  1      226
siesta:     10.76199  31.73985   9.77934  2      227
siesta:     11.07758  32.06111  12.30212  3      228
siesta:     10.54657  34.13225   8.84014  3      229
siesta:      8.19386  30.40193   9.33336  2      230
siesta:      6.80680  31.47529  10.42940  1      231
siesta:      7.78001  30.66838   7.33592  1      232
siesta:      7.81591  27.58056   9.95319  2      233
siesta:      5.56147  26.83790   8.95353  3      234
siesta:      9.54690  26.25020   8.58125  3      235
siesta:      7.95008  26.63381  12.70274  2      236
siesta:      7.98221  24.58724  12.62338  1      237
siesta:      9.75477  27.23096  13.48698  1      238
siesta:      5.88650  27.32545  14.63971  2      239
siesta:      3.63772  27.56167  13.39627  3      240
siesta:      5.49911  25.24108  16.11370  3      241
siesta:      6.23421  29.64226  16.42173  2      242
siesta:      6.37783  28.84668  18.28689  1      243
siesta:      8.05213  30.48507  15.97764  1      244
siesta:      4.25944  31.79276  16.65605  2      245
siesta:      2.81191  31.92316  14.54334  3      246
siesta:      2.61160  31.05199  18.46641  3      247
siesta:      5.13817  34.48563  17.31557  2      248
siesta:      3.48844  35.67048  17.49887  1      249
siesta:      5.99610  34.42326  19.20907  1      250
siesta:      7.00144  35.92371  15.62048  2      251
siesta:      9.39950  35.23963  16.27811  3      252
siesta:      6.76522  35.06577  13.21108  3      253
siesta:      6.91451  38.84334  15.46741  2      254
siesta:      4.93030  39.35356  15.20285  1      255
siesta:      7.50411  39.53309  17.32880  1      256
siesta:      8.39795  40.30409  13.41517  2      257
siesta:      7.09026  40.08300  11.21364  3      258
siesta:      8.20141  42.82499  13.91784  3      259
siesta:     11.14561  39.68237  12.74243  2      260
siesta:     11.12104  37.77564  11.97331  1      261
siesta:     11.69363  40.94282  11.20986  1      262
siesta:     13.26021  39.80143  14.72853  2      263
siesta:     14.56413  41.98028  14.27878  3      264
siesta:     12.21330  40.20016  17.05101  3      265
siesta:     15.18207  37.61501  14.93451  2      266
siesta:     14.10114  35.85946  15.08191  1      267
siesta:     16.24220  37.58667  13.16006  1      268
siesta:     17.15305  37.51864  17.06801  2      269
siesta:     16.17984  36.09567  18.98231  3      270
siesta:     19.13915  36.13347  16.17039  3      271
siesta:     18.26421  39.94883  18.23397  2      272
siesta:     18.28122  41.40770  16.76377  1      273
siesta:     16.96408  40.56110  19.72497  1      274
siesta:     20.91361  39.91481  19.41694  2      275
siesta:     21.17817  37.69249  20.70574  3      276
siesta:     22.59357  39.83922  17.44785  3      277
siesta:     21.77910  42.05398  21.17250  2      278
siesta:     23.85213  42.08233  21.18573  1      279
siesta:     21.15738  43.80387  20.27299  1      280
siesta:     20.87014  42.20138  23.94851  2      281
siesta:     21.46541  44.55031  24.82534  3      282
siesta:     18.30012  42.24484  23.97874  3      283
siesta:     21.81501  40.25874  25.96485  2      284
siesta:     22.94317  38.84901  24.97652  1      285
siesta:     23.02632  41.21494  27.29522  1      286
siesta:     19.89882  38.77342  27.57300  2      287
siesta:     21.17439  37.66037  29.51375  3      288
siesta:     18.33602  40.46472  28.73141  3      289
siesta:     18.22075  36.73629  26.38059  2      290
siesta:     16.33291  37.00841  27.17238  1      291
siesta:     18.10925  37.11424  24.35669  1      292
siesta:     18.85192  33.89414  26.68105  2      293
siesta:     17.20785  32.62802  25.17116  3      294
siesta:     21.15549  33.52753  25.62848  3      295
siesta:     18.83491  32.59212  29.28888  2      296
siesta:     18.98609  30.56822  28.94684  1      297
siesta:     20.56023  33.16093  30.26398  1      298
siesta:     16.63527  32.92849  31.17860  2      299
siesta:     14.59247  33.89225  29.91627  3      300
siesta:     15.93985  30.53988  31.87969  3      301
siesta:     17.03589  34.47618  33.62769  2      302
siesta:     17.70863  33.13636  35.06010  1      303
siesta:     18.57224  35.83678  33.25163  1      304
siesta:     14.80979  35.92749  34.79743  2      305
siesta:     12.76699  34.37413  34.80688  3      306
siesta:     15.32757  36.28465  37.28620  3      307
siesta:     14.00666  38.49752  33.69761  2      308
siesta:     15.13482  39.90536  34.68594  1      309
siesta:     14.53956  38.51641  31.70584  1      310
siesta:     11.23065  39.38380  33.80910  2      311
siesta:     11.16262  41.77619  32.83967  3      312
siesta:      9.88516  37.93816  32.16882  3      313
siesta:      9.83036  39.41214  36.35268  2      314
siesta:      9.84548  37.46573  37.04621  1      315
siesta:     10.96986  40.51574  37.68115  1      316
siesta:      7.06947  40.37968  36.57377  2      317
siesta:      6.12083  39.37246  38.76208  3      318
siesta:      7.20364  42.91192  37.00652  3      319
siesta:      5.08903  40.02630  34.46106  2      320
siesta:      3.46198  41.19227  35.00152  1      321
siesta:      5.89595  40.82944  32.74519  1      322
siesta:      4.05724  37.38636  33.83745  2      323
siesta:      5.58981  35.66104  34.92404  3      324
siesta:      1.80091  37.14447  35.10924  3      325
siesta:      3.63772  36.53976  31.08223  2      326
siesta:      5.51800  36.35835  30.22807  1      327
siesta:      2.83270  34.62925  31.14270  1      328
siesta:      2.04091  38.08745  29.16982  2      329
siesta:      3.67552  39.13435  27.48608  3      330
siesta:      0.74455  36.38102  27.73930  3      331
siesta:      0.12094  40.13969  30.01453  2      332
siesta:     40.93904  39.68993  29.06211  1      333
siesta:     42.38846  39.90536  32.02898  1      334
siesta:      0.64440  42.98751  29.47218  2      335
siesta:      3.05758  43.53742  30.15437  3      336
siesta:      0.61416  43.28608  26.92672  3      337
siesta:     41.45494  45.08132  30.53799  2      338
siesta:     42.24484   0.63873  29.93705  1      339
siesta:     39.62568  44.85456  29.61958  1      340
siesta:     40.95227  45.31565  33.40281  2      341
siesta:     39.63513  43.26530  34.15114  3      342
siesta:      0.60849  45.12101  34.64436  3      343
siesta:     39.56710   1.45131  34.42138  2      344
siesta:     40.71039   3.02356  33.77887  1      345
siesta:     37.71706   1.54769  33.48785  1      346
siesta:     39.06443   1.88028  37.25974  2      347
siesta:     36.79865   3.09915  37.34667  3      348
siesta:     38.66003  45.85044  38.38602  3      349
siesta:     40.96928   3.41285  38.84145  2      350
siesta:      0.23622   3.22765  37.96083  1      351
siesta:     40.45905   5.40273  38.65436  1      352
siesta:     41.31132   2.95364  41.71194  2      353
siesta:     41.24140   5.21376  42.89491  3      354
siesta:     39.23640   1.76689  42.67759  3      355
siesta:      1.12250   1.55902  42.60389  2      356
siesta:      2.75522   2.40562  41.67226  1      357
siesta:      1.32092   1.95776  44.60889  1      358
siesta:      1.35115  44.91881  42.29776  2      359
siesta:      0.90896  44.28764  39.86757  3      360
siesta:      3.85882  44.33866  42.57366  3      361
siesta:     42.40169  43.17459  44.03442  2      362
siesta:      0.87872  42.97428   1.09037  1      363
siesta:     40.66881  44.16292  44.48984  1      364
siesta:     41.60234  40.49685  43.18971  2      365
siesta:     41.07699  39.23262   0.66707  3      366
siesta:     39.31766  40.72361  41.99918  3      367
siesta:      0.78046  38.81877  41.56265  2      368
siesta:      0.45920  39.32900  39.58600  1      369
siesta:      2.72688  39.36490  41.98028  1      370
siesta:      0.56125  35.90670  41.72517  2      371
siesta:     40.68015  35.28876  41.26786  3      372
siesta:      1.77445  34.87491  39.68804  3      373
siesta:      1.45887  34.44594  44.06843  2      374
siesta:      0.02646  34.74263   0.83904  1      375
siesta:      1.37761  32.45228  43.59978  1      376
siesta:      4.09126  34.97507   0.59337  2      377
siesta:      5.78067  35.75552  43.49584  3      378
siesta:      3.77945  37.05943   2.09193  3      379
siesta:      5.36493  32.93227   2.23555  2      380
siesta:      6.66129  33.95839   3.48277  1      381
siesta:      3.92118  32.09701   3.42041  1      382
siesta:      6.87105  30.69105   1.06770  2      383
siesta:      8.16362  31.56411  43.71694  3      384
siesta:      8.71164  29.96351   2.74199  3      385
siesta:      5.51800  28.24008   0.25700  2      386
siesta:      3.84748  28.80133  43.84922  1      387
siesta:      6.74255  27.26120  43.63001  1      388
siesta:      4.60715  26.28232   2.24500  2      389
siesta:      3.86827  27.52387   4.33881  3      390
siesta:      2.42830  25.32423   1.30958  3      391
siesta:      6.34570  24.06945   3.02167  2      392
siesta:      8.27133  24.50220   2.45664  1      393
siesta:      6.36271  24.03733   5.08337  1      394
siesta:      5.72965  21.35391   2.14862  2      395
siesta:      7.53056  19.80812   3.13317  3      396
siesta:      3.60560  20.66227   3.40529  3      397
siesta:      5.43108  20.75487  43.98339  2      398
siesta:      3.89851  21.92461  43.23506  1      399
siesta:      7.16584  21.35580  43.08388  1      400
siesta:      4.95486  18.00910  43.11223  2      401
siesta:      7.06758  17.20785  41.87824  3      402
siesta:      4.76589  16.46519   0.47999  3      403
siesta:      2.67963  17.45730  41.36801  2      404
siesta:      0.98833  18.07146  42.34122  1      405
siesta:      2.88750  18.65538  39.68048  1      406
siesta:      2.15996  14.74176  40.44016  2      407
siesta:      0.42330  14.96475  38.54098  3      408
siesta:      4.26322  13.84036  39.27608  3      409
siesta:      1.09604  12.78778  42.27886  2      410
siesta:      0.77857  13.71375  44.11189  1      411
siesta:     41.81399  12.27945  41.54376  1      412
siesta:      2.48310  10.31413  42.85145  2      413
siesta:      1.04691   9.12549  44.60889  3      414
siesta:      2.28279   8.84392  40.74818  3      415
siesta:      5.22321  10.26500  43.81710  2      416
siesta:      6.43074  11.02467  42.31098  1      417
siesta:      5.31202  11.56513   0.74455  1      418
siesta:      6.39862   7.74032  44.63157  2      419
siesta:      4.83014   6.61593   1.66296  3      420
siesta:      6.38539   6.13972  42.61334  3      421
siesta:      9.09715   7.68174   1.01478  2      422
siesta:      9.53556   5.69753   1.47210  1      423
siesta:     10.32736   8.24677  44.16481  1      424
siesta:      9.81713   9.32769   3.32592  2      425
siesta:      7.67985   9.80201   4.64306  3      426
siesta:     11.20608   7.85370   4.90573  3      427
siesta:     11.22120  11.87315   3.05947  2      428
siesta:      9.80201  13.27911   2.61916  1      429
siesta:     12.02055  12.35314   4.90195  1      430
siesta:     13.36415  12.20386   1.12061  2      431
siesta:     14.63404   9.97965   0.92975  3      432
siesta:     12.29834  12.57046  43.48262  3      433
siesta:     15.39560  14.24098   1.46643  2      434
siesta:     16.34236  13.91406   3.26923  1      435
siesta:     16.77322  13.98209  44.66558  1      436
siesta:     14.54901  17.04912   1.44186  2      437
siesta:     12.75755  17.35903   3.27112  3      438
siesta:     16.57857  18.41350   2.25066  3      439
siesta:     13.59470  18.21319  43.61301  2      440
siesta:     14.78522  17.50643  42.08989  1      441
siesta:     11.66906  17.50454  43.33333  1      442
siesta:     13.45108  21.10069  43.28797  2      443
siesta:     11.94496  21.50698  41.23195  3      444
siesta:     12.09803  22.05878   0.54424  3      445
siesta:     15.85292  22.74286  42.92893  2      446
siesta:     17.31179  21.95863  44.15536  1      447
siesta:     16.49732  22.54066  40.95416  1      448
siesta:     15.73576  25.60580  43.45805  2      449
siesta:     15.21797  25.91193   1.27368  3      450
siesta:     18.09225  26.59224  43.19727  3      451
siesta:     13.83469  27.24797  41.98595  2      452
siesta:     12.09425  26.14815  41.81777  1      453
siesta:     13.42840  28.87125  43.16325  1      454
siesta:     14.48287  28.26464  39.32333  2      455
siesta:     16.35181  29.98808  39.56143  3      456
siesta:     15.52033  26.34846  37.95894  3      457
siesta:     12.45141  29.52698  37.67171  2      458
siesta:     12.13961  31.38647  38.46728  1      459
siesta:     13.29801  29.75753  35.81977  1      460
siesta:      9.79445  28.38748  37.33155  2      461
siesta:     10.01366  25.83446  37.01030  3      462
siesta:      8.57180  28.65960  39.58411  3      463
siesta:      8.03890  29.44572  35.23207  2      464
siesta:      8.14094  31.53198  35.34545  1      465
siesta:      8.87227  28.89770  33.41415  1      466
siesta:      5.21754  28.69550  35.06766  2      467
siesta:      4.25000  29.96351  33.01920  3      468
siesta:      5.12872  26.23319  34.36846  3      469
siesta:      3.36749  29.15849  37.28242  2      470
siesta:      4.35393  30.23185  38.74885  1      471
siesta:      1.88028  30.38870  36.58700  1      472
siesta:      2.10327  26.87570  38.62602  2      473
siesta:      3.94008  25.41305  39.65592  3      474
siesta:      0.84471  27.81678  40.66503  3      475
siesta:      0.28535  25.14093  37.11046  2      476
siesta:     42.02375  26.25020  35.57411  1      477
siesta:      1.48722  23.70851  36.23362  1      478
siesta:     40.66692  23.73875  38.41248  2      479
siesta:     41.64391  22.31201  40.31921  3      480
siesta:     39.17971  25.46974  39.62379  3      481
siesta:     38.84334  22.04933  36.84967  2      482
siesta:     37.39581  21.40872  38.16114  1      483
siesta:     37.90603  23.27766  35.48718  1      484
siesta:     39.81844  19.69473  35.42671  2      485
siesta:     42.20894  19.14482  36.19583  3      486
siesta:     38.42193  17.69351  36.29031  3      487
siesta:     39.68426  19.54356  32.52976  2      488
siesta:     39.20805  17.57257  32.08567  1      489
siesta:     38.07044  20.67550  31.95150  1      490
siesta:     41.91792  20.30701  30.79688  2      491
siesta:      1.26423  21.33124  32.17260  3      492
siesta:      0.34582  18.12815  29.81800  3      493
siesta:     41.44927  22.09847  28.53866  2      494
siesta:      0.50834  21.94351  27.25553  1      495
siesta:     39.80710  21.40872  27.52198  1      496
siesta:     40.98440  24.95762  29.03943  2      497
siesta:     39.28742  25.76643  27.28199  3      498
siesta:     39.59734  25.09935  31.22396  3      499
siesta:      0.59337  26.84924  29.27754  2      500
siesta:      0.19086  28.04355  30.89892  1      501
siesta:      2.25066  25.71351  29.73674  1      502
siesta:      1.35493  28.66527  27.11569  2      503
siesta:     41.79698  29.71407  26.14248  3      504
siesta:      2.51712  30.72129  28.17394  3      505
siesta:      2.99144  27.84702  24.85936  2      506
siesta:      1.73099  26.92105  23.49686  1      507
siesta:      3.65473  29.60257  23.98441  1      508
siesta:      5.32147  26.15949  25.26565  2      509
siesta:      4.46542  23.74631  25.58312  3      510
siesta:      6.57814  26.04233  23.04900  3      511
siesta:      7.25277  26.79822  27.38214  2      512
siesta:      6.55546  28.41771  28.44984  1      513
siesta:      7.28301  25.15415  28.66527  1      514
siesta:     10.04768  27.39726  26.80200  2      515
siesta:     11.11537  28.24953  29.02432  3      516
siesta:     11.25332  25.17116  26.36169  3      517
siesta:     10.93963  29.22841  24.69495  2      518
siesta:     12.87660  29.76887  25.22218  1      519
siesta:     11.06624  28.12669  22.96396  1      520
siesta:      9.44674  31.69261  24.15260  2      521
siesta:      7.64583  31.09357  22.41027  3      522
siesta:      8.11638  32.29732  26.27665  3      523
siesta:     10.76955  34.11146  23.23230  2      524
siesta:     12.56101  34.24374  24.25842  1      525
siesta:     11.27411  33.85068  21.25187  1      526
siesta:      9.38249  36.68527  23.46852  2      527
siesta:      9.86437  37.97028  21.28966  3      528
siesta:      6.83325  36.27331  23.40238  3      529
siesta:      9.88516  38.46161  25.71162  2      530
siesta:      8.08614  39.32333  26.17461  1      531
siesta:     10.39728  37.27864  27.31978  1      532
siesta:     11.93740  40.50819  25.52832  2      533
siesta:     12.90494  40.87101  27.89237  3      534
siesta:     13.90650  39.58033  24.15260  3      535
siesta:     11.32135  43.15569  24.43606  2      536
siesta:     12.89739  44.39913  24.96707  1      537
siesta:     11.36293  42.99885  22.38193  1      538
siesta:      8.85337  44.55409  25.12770  2      539
siesta:      8.03701  43.74151  27.43883  3      540
siesta:      9.46753   0.75967  25.59068  3      541
siesta:      6.59326  44.53519  23.29088  2      542
siesta:      5.92051  42.57933  23.17561  1      543
siesta:      5.07581  45.66336  24.15260  1      544
siesta:      6.88428  45.48573  20.52054  2      545
siesta:      8.19008  43.69615  19.21285  3      546
siesta:      4.56369  45.46305  19.42450  3      547
siesta:      8.07858   1.83115  19.92150  2      548
siesta:      6.51956   3.13695  19.58324  1      549
siesta:      9.04423   2.50767  21.61659  1      550
siesta:      9.96642   2.17697  17.71997  2      551
siesta:      8.68896   1.67808  15.54867  3      552
siesta:     10.50688   4.70731  17.55934  3      553
siesta:     12.50810   0.71810  17.52722  2      554
siesta:     12.01299  44.99440  17.24943  1      555
siesta:     13.41139   1.39840  15.78678  1      556
siesta:     14.52255   0.83148  19.63237  2      557
siesta:     13.41328   1.74233  21.75076  3      558
siesta:     15.12348  44.65236  20.23331  3      559
siesta:     16.98864   2.35271  19.34702  2      560
siesta:     16.45196   4.32558  19.64938  1      561
siesta:     18.20185   1.79146  20.90038  1      562
siesta:     18.58546   2.25444  16.89416  2      563
siesta:     18.42484  46.10934  15.94552  3      564
siesta:     17.41005   3.79646  15.19529  3      565
siesta:     21.39927   2.98766  16.86203  2      566
siesta:     22.45751   1.28312  17.29289  1      567
siesta:     21.80556   3.45064  14.91183  1      568
siesta:     22.47641   5.14384  18.50987  2      569
siesta:     22.35358   7.25277  17.04345  3      570
siesta:     20.90605   5.60493  20.48464  3      571
siesta:     25.19195   5.05880  19.55678  2      572
siesta:     26.47507   4.84526  17.97319  1      573
siesta:     25.55289   6.92585  20.39015  1      574
siesta:     25.97808   3.11427  21.57879  2      575
siesta:     24.53432   0.99400  21.27266  3      576
siesta:     28.38370   2.37539  21.06479  3      577
siesta:     25.87981   3.82481  24.40015  2      578
siesta:     26.81333   5.65028  24.60802  1      579
siesta:     23.86536   4.10260  24.88203  1      580
siesta:     27.01743   2.09004  26.46374  2      581
siesta:     29.18872   3.18608  27.27254  3      582
siesta:     25.43572   2.28657  28.49330  3      583
siesta:     27.63915  45.51407  26.05555  2      584
siesta:     26.06311  44.61645  25.07290  1      585
siesta:     29.26053  45.42148  24.78188  1      586
siesta:     28.20039  43.79064  28.35724  2      587
siesta:     26.05555  43.73017  29.80666  3      588
siesta:     28.44606  41.40203  27.47474  3      589
siesta:     30.37925  44.33299  30.19784  2      590
siesta:     30.07689  46.23973  30.94995  1      591
siesta:     30.15626  43.01774  31.74930  1      592
siesta:     33.16471  44.16292  29.32100  2      593
siesta:     33.47840  45.79375  27.34813  3      594
siesta:     34.59712  45.27219  31.13703  3      595
siesta:     34.38736  41.60612  28.66338  2      596
siesta:     35.86513  41.29998  30.05989  1      597
siesta:     32.94928  40.13591  28.97518  1      598
siesta:     35.57789  41.13180  26.06122  2      599
siesta:     37.70005  42.60956  25.90060  3      600
siesta:     36.46606  38.70539  26.07823  3      601
siesta:     34.10201  41.49273  23.55734  2      602
siesta:     33.28376  43.36734  23.56489  1      603
siesta:     35.51553  41.46061  22.04744  1      604
siesta:     32.00252  39.65970  22.69373  2      605
siesta:     29.85768  41.08644  22.47263  3      606
siesta:     32.56755  39.06821  20.26354  3      607
siesta:     31.37703  37.20305  24.13370  2      608
siesta:     33.09290  36.02575  24.09024  1      609
siesta:     30.97829  37.67360  26.09335  1      610
siesta:     29.16793  35.53820  23.23041  2      611
siesta:     28.64259  33.96595  25.18817  3      612
siesta:     27.05522  36.97629  23.00554  3      613
siesta:     29.43628  33.88469  20.82479  2      614
siesta:     30.44539  35.00530  19.41883  1      615
siesta:     30.61358  32.27465  21.34824  1      616
siesta:     27.11380  32.81133  19.44718  2      617
siesta:     26.43350  34.52909  17.65005  3      618
siesta:     27.85835  30.73452  18.15650  3      619
siesta:     24.71385  32.06867  20.96274  2      620
siesta:     25.28455  30.97640  22.61247  1      621
siesta:     23.86536  33.82989  21.64304  1      622
siesta:     22.56712  30.56255  19.61348  2      623
siesta:     22.68806  28.10969  20.44118  3      624
siesta:     20.36370  31.44317  20.55645  3      625
siesta:     22.36114  30.58901  16.69007  2      626
siesta:     22.35547  32.55055  16.08536  1      627
siesta:     24.05433  29.67816  15.99654  1      628
siesta:     20.16150  29.25486  15.34269  2      629
siesta:     20.54322  29.59123  12.81613  3      630
siesta:     20.43173  26.73208  15.65450  3      631
siesta:     17.37604  30.05044  15.82646  2      632
siesta:     17.40816  31.81733  16.89605  1      633
siesta:     16.56913  30.48318  13.98020  1      634
siesta:     15.38427  28.38748  17.15872  2      635
siesta:     13.89894  30.01642  18.50043  3      636
siesta:     13.82713  27.46529  15.32946  3      637
siesta:     16.08913  26.18406  18.93884  2      638
siesta:     18.06768  26.43728  19.46608  1      639
siesta:     14.98553  26.39571  20.66227  1      640
siesta:     15.78489  23.43828  17.99965  2      641
siesta:     17.14738  23.14349  15.83402  3      642
siesta:     17.03589  21.90571  19.64749  3      643
siesta:     13.16762  22.23831  17.50643  2      644
siesta:     12.65361  22.76554  15.57891  1      645
siesta:     13.44352  20.21441  17.55556  1      646
siesta:     10.90750  22.85625  19.23364  2      647
siesta:     11.75032  22.86192  21.65438  3      648
siesta:     10.25555  25.29210  18.80656  3      649
siesta:      8.46787  21.26132  19.11648  2      650
siesta:      6.91451  22.39137  19.79867  1      651
siesta:      8.09559  20.84936  17.14927  1      652
siesta:      8.34314  18.71774  20.53566  2      653
siesta:      6.69341  17.22297  19.21852  3      654
siesta:     10.58814  17.51210  20.24842  3      655
siesta:      7.55891  18.60814  23.35891  2      656
siesta:      8.90250  19.81946  24.36803  1      657
siesta:      5.70509  19.45852  23.51954  1      658
siesta:      7.46064  16.05890  24.78755  2      659
siesta:      6.04902  14.45641  23.35702  3      660
siesta:      9.79067  15.02144  24.81400  3      661
siesta:      6.39862  15.86993  27.49553  2      662
siesta:      4.33314  15.78867  27.33112  1      663
siesta:      7.01278  14.05390  28.21929  1      664
siesta:      7.03923  17.90138  29.47785  2      665
siesta:      9.48265  18.61381  29.17549  3      666
siesta:      5.65217  19.98197  28.87503  3      667
siesta:      6.64428  17.32502  32.32567  2      668
siesta:      4.58448  17.20029  32.59779  1      669
siesta:      7.46064  15.47686  32.67149  1      670
siesta:      7.66473  19.16561  34.37224  2      671
siesta:      7.12238  21.55800  33.58234  3      672
siesta:      6.25311  18.81790  36.49252  3      673
siesta:     10.46342  19.13348  35.13002  2      674
siesta:     11.48387  20.05378  33.58423  1      675
siesta:     10.61460  20.36748  36.77786  1      676
siesta:     11.91284  16.66172  35.80277  2      677
siesta:     12.63660  15.56001  33.60501  3      678
siesta:     14.14839  17.38927  36.88747  3      679
siesta:     10.76955  14.62082  37.52431  2      680
siesta:     11.78245  14.66239  39.30443  1      681
siesta:      8.83069  15.23309  37.91548  1      682
siesta:     10.63160  11.81835  36.67582  2      683
siesta:      9.40895  10.51255  38.52397  3      684
siesta:      8.97620  11.72387  34.70105  3      685
siesta:     12.98998  10.28578  35.87269  2      686
siesta:     12.27756   8.43007  35.34167  1      687
siesta:     13.73453  11.16262  34.17949  1      688
siesta:     15.20474   9.83225  37.74918  2      689
siesta:     14.17484   9.15762  40.01686  3      690
siesta:     16.45952   7.73654  36.88180  3      691
siesta:     17.17951  11.95063  38.23673  2      692
siesta:     17.56879  12.80101  36.38480  1      693
siesta:     16.26677  13.37927  39.38569  1      694
siesta:     19.73820  11.37805  39.50663  2      695
siesta:     19.32813  10.97742  42.03319  3      696
siesta:     20.62826   9.12549  38.64302  3      697
siesta:     21.93028  13.28100  39.31010  2      698
siesta:     23.54033  12.39661  40.23229  1      699
siesta:     22.34791  13.47942  37.32022  1      700
siesta:     21.74887  15.97953  40.44204  2      701
siesta:     21.82446  17.61036  38.43704  3      702
siesta:     19.38671  16.37070  41.41147  3      703
siesta:     23.67450  16.92250  42.40547  2      704
siesta:     25.53399  16.80156  41.53431  1      705
siesta:     23.27199  18.90483  42.73806  1      706
siesta:     23.85402  15.66962   0.34015  2      707
siesta:     21.45596  15.36159   1.22265  3      708
siesta:     24.73464  13.28478   0.12661  3      709
siesta:     25.32612  16.99998   2.47365  2      710
siesta:     24.46440  18.83491   2.73443  1      711
siesta:     24.96707  15.89638   4.14984  1      712
siesta:     28.21929  17.40627   2.35838  2      713
siesta:     29.35502  15.13671   2.88183  3      714
siesta:     28.89392  17.94296  44.64102  3      715
siesta:     29.48730  19.38860   4.09882  2      716
siesta:     28.74275  19.07868   5.99988  1      717
siesta:     31.48285  18.93506   4.12716  1      718
siesta:     29.21707  22.24209   3.56402  2      719
siesta:     30.65326  22.81278   1.49477  3      720
siesta:     26.77365  22.74475   2.89128  3      721
siesta:     29.92383  24.24709   5.56147  2      722
siesta:     30.31311  25.97241   4.51078  1      723
siesta:     28.26087  24.55511   6.71042  1      724
siesta:     32.14803  23.82757   7.42096  2      725
siesta:     31.38647  22.04744   9.13116  3      726
siesta:     34.05288  22.64649   6.15295  3      727
siesta:     33.28376  26.04989   8.87227  2      728
siesta:     34.52531  25.23919  10.30468  1      729
siesta:     34.44783  27.07034   7.51355  1      730
siesta:     31.59245  28.02843  10.21208  2      731
siesta:     30.80444  29.64226   8.39417  3      732
siesta:     29.45895  26.81144  11.05490  3      733
siesta:     32.68472  29.62525  12.40417  2      734
siesta:     32.67338  28.42149  14.09736  1      735
siesta:     34.65192  29.99941  11.94118  1      736
siesta:     31.40726  32.13292  13.17140  2      737
siesta:     28.85991  31.63781  13.21675  3      738
siesta:     32.05166  32.59779  15.60536  3      739
siesta:     31.72473  34.63869  11.66150  2      740
siesta:     31.39592  34.23429   9.65650  1      741
siesta:     30.18839  35.85568  12.26622  1      742
siesta:     34.22484  36.13914  11.82402  2      743
siesta:     36.02764  34.58956  12.74243  3      744
siesta:     34.96751  36.55299   9.41084  3      745
siesta:     34.48374  38.65814  13.26210  2      746
siesta:     35.20561  38.21217  15.13293  1      747
siesta:     35.94638  39.74474  12.29456  1      748
siesta:     32.25197  40.50063  13.66273  2      749
siesta:     30.91404  40.67637  11.46497  3      750
siesta:     30.63436  39.39325  15.33135  3      751
siesta:     32.77542  43.21994  14.59814  2      752
siesta:     34.30610  43.07254  15.98331  1      753
siesta:     33.51998  44.24418  12.99754  1      754
siesta:     30.71184  44.91881  15.78678  2      755
siesta:     30.94806  44.67314  18.33980  3      756
siesta:     31.37703   1.12628  15.35403  3      757
siesta:     27.89426  44.64291  15.08569  2      758
siesta:     27.59190  42.70972  14.43562  1      759
siesta:     26.86814  44.88101  16.83180  1      760
siesta:     26.67727   0.17197  13.12226  2      761
siesta:     24.26409  45.59911  12.86337  3      762
siesta:     26.44862   2.47365  14.19374  3      763
siesta:     27.85457   0.48188  10.47098  2      764
siesta:     29.58934   1.57036  10.68074  1      765
siesta:     28.38748  44.86023   9.85304  1      766
siesta:     26.29177   1.65162   8.27322  2      767
siesta:     25.63981  46.01485   6.67641  3      768
siesta:     24.02977   2.50011   9.17462  3      769
siesta:     27.41427   3.75867   6.58948  2      770
siesta:     29.14904   3.01222   5.80146  1      771
siesta:     26.10280   3.97221   5.00967  1      772
siesta:     27.99819   6.38728   7.64772  2      773
siesta:     27.05333   6.54412  10.03823  3      774
siesta:     30.55121   6.55546   7.98599  3      775
siesta:     27.14215   8.77211   6.16240  2      776
siesta:     27.78843  10.39728   7.22254  1      777
siesta:     28.16638   8.77400   4.37094  1      778
siesta:     24.32267   9.22376   5.51233  2      779
siesta:     23.91827  11.75599   5.77312  3      780
siesta:     24.02599   8.73432   3.01411  3      781
siesta:     22.17028   7.84615   6.95419  2      782
siesta:     22.13626   5.87327   6.32114  1      783
siesta:     22.65027   7.81591   8.97053  1      784
siesta:     19.44907   8.82125   6.71798  2      785
siesta:     19.10703  10.60704   8.55479  3      786
siesta:     19.20340  10.11949   4.51456  3      787
siesta:     17.18896   6.97687   6.74444  2      788
siesta:     15.53733   8.17496   6.42696  1      789
siesta:     17.37793   5.74099   5.10226  1      790
siesta:     16.58235   5.33659   9.07825  2      791
siesta:     18.70830   4.08748   9.74721  3      792
siesta:     16.21575   6.96553  11.05679  3      793
siesta:     14.27878   3.54135   9.04234  2      794
siesta:     13.14116   4.02890  10.69396  1      795
siesta:     13.16951   3.99488   7.38883  1      796
siesta:     14.63971   0.62172   9.14250  2      797
siesta:     16.11748  46.24162  11.13616  3      798
siesta:     12.31346  45.94493   9.75666  3      799
siesta:     15.47686  45.37234   6.76144  2      800
siesta:     14.72853  43.44482   6.91451  1      801
siesta:     14.57357  46.23406   5.13628  1      802
siesta:     18.31145  45.07377   6.11138  2      803
siesta:     18.42484  43.96450   3.77945  3      804
siesta:     19.25443   1.16785   5.66351  3      805
siesta:     20.24275  43.72828   7.84048  2      806
siesta:     21.97374  43.59600   6.74632  1      807
siesta:     20.60936  45.01707   9.41840  1      808
siesta:     19.74009  41.06754   8.94030  2      809
siesta:     17.32124  40.96172   9.84548  3      810
siesta:     19.76843  39.36490   6.99010  3      811
siesta:     21.46541  40.05465  11.08703  2      812
siesta:     21.51832  41.46628  12.58747  1      813
siesta:     20.58291  38.36335  11.85237  1      814
siesta:     24.24142  39.33844  10.48043  2      815
siesta:     25.36202  41.40959   9.45430  3      816
siesta:     25.45651  38.96050  12.70463  3      817
siesta:     24.82534  37.09723   8.72109  2      818
siesta:     24.12992  37.61879   6.88805  1      819
siesta:     26.87570  36.95928   8.60015  1      820
siesta:     23.79166  34.45539   9.35982  2      821
siesta:     24.08457  34.03398  11.87693  3      822
siesta:     21.24620  34.53665   9.03289  3      823
siesta:     24.76109  32.03276   8.05213  2      824
siesta:     26.37303  31.28632   9.11226  1      825
siesta:     23.24364  30.65137   8.22220  1      826
siesta:     25.59824  32.05544   5.25344  2      827
siesta:     27.77143  33.43305   5.09092  3      828
siesta:     26.30689  29.64604   4.66763  3      829
siesta:     23.70473  32.94739   3.22198  2      830
siesta:     22.90160  31.23341   2.40184  1      831
siesta:     22.18917  33.98674   4.18386  1      832
siesta:     24.54377  34.57255   0.95998  2      833
siesta:     26.42027  33.31022  44.40291  3      834
siesta:     22.58980  34.55555  43.97583  3      835
siesta:     25.49242  37.28809   1.23588  2      836
siesta:     26.62625  37.35045   2.95931  1      837
siesta:     26.80578  37.64147  44.35945  1      838
siesta:     23.64048  39.56332   1.33793  2      839
siesta:     21.27266  38.73184   1.94642  3      840
siesta:     24.33968  40.92204   3.38261  3      841
siesta:     23.36080  41.45116  43.81332  2      842
siesta:     21.41816  42.13146  43.87757  1      843
siesta:     24.60802  43.05176  44.23662  1      844
siesta:     23.86914  40.64047  41.05810  2      845
siesta:     26.38815  40.41181  40.75952  3      846
siesta:     22.98664  38.24429  40.71228  3      847
siesta:     23.00931  42.27697  38.83011  2      848
siesta:     23.49875  44.24040  39.24774  1      849
siesta:     24.17528  41.67226  37.23896  1      850
siesta:     20.27110  42.25240  37.82855  2      851
siesta:     19.79678  39.90347  36.83267  3      852
siesta:     18.67806  42.43382  39.82599  3      853
siesta:     19.45663  44.24984  35.86513  2      854
siesta:     17.53478  43.73962  35.27364  1      855
siesta:     19.32813  46.03564  36.86668  1      856
siesta:     21.07045  44.68070  33.44439  2      857
siesta:     23.34758  45.56887  34.21728  3      858
siesta:     21.55611  42.38468  32.39748  3      859
siesta:     20.15205   0.17197  31.28443  2      860
siesta:     21.01187   2.01067  31.63970  1      861
siesta:     20.96274  45.73517  29.51942  1      862
siesta:     17.31935   0.59715  30.81767  2      863
siesta:     16.07402  44.59944  31.14270  3      864
siesta:     16.42929   2.11271  32.70739  3      865
siesta:     16.37070   1.68186  28.29110  2      866
siesta:     17.10392   0.44975  26.82845  1      867
siesta:     14.32413   1.53824  28.28921  1      868
siesta:     17.03022   4.42196  27.46529  2      869
siesta:     19.56812   4.69219  27.52576  3      870
siesta:     16.38015   4.61471  24.97841  3      871
siesta:     15.83591   6.69341  28.88637  2      872
siesta:     14.09925   6.00366  29.78965  1      873
siesta:     17.13982   7.15451  30.41893  1      874
siesta:     15.21986   9.20297  27.54088  2      875
siesta:     14.78333  10.97931  29.37202  3      876
siesta:     17.40249  10.01555  26.45429  3      877
siesta:     13.14683   9.42407  25.50564  2      878
siesta:     12.97675  11.44419  24.99920  1      879
siesta:     13.89705   8.45842  23.84457  1      880
siesta:     10.42751   8.44141  25.92138  2      881
siesta:     10.50310   5.95264  26.54499  3      882
siesta:      9.46942   9.64517  27.99441  3      883
siesta:      8.48109   8.69652  23.76143  2      884
siesta:      8.58881  10.63727  23.11892  1      885
siesta:      9.12171   7.51355  22.21563  1      886
siesta:      5.65217   8.12961  24.18472  2      887
siesta:      4.58448  10.00043  25.58690  3      888
siesta:      4.48810   8.32614  21.90760  3      889
siesta:      4.81880   5.58981  25.33179  2      890
siesta:      6.23988   4.19141  24.86503  1      891
siesta:      4.86416   5.79201  27.38781  1      892
siesta:      2.23366   4.40495  24.71196  2      893
siesta:      2.39239   3.41285  22.34224  3      894
siesta:      1.97854   2.35460  26.24831  3      895
siesta:     42.36579   6.00555  24.84802  2      896
siesta:      0.25889   7.78567  25.77021  1      897
siesta:     41.84044   6.44208  22.90538  1      898
siesta:     39.99040   4.96242  26.14059  2      899
siesta:     40.53842   4.60337  28.64070  3      900
siesta:     38.25941   6.85404  26.15949  3      901
siesta:     38.67704   2.56814  25.12770  2      902
siesta:     40.14158   1.22832  24.59669  1      903
siesta:     37.63958   1.71020  26.70562  1      904
siesta:     36.81566   2.73443  22.89026  2      905
siesta:     38.01186   4.01756  20.98920  3      906
siesta:     36.56999   0.34204  21.99831  3      907
siesta:     34.13225   3.78890  23.22096  2      908
siesta:     32.87180   2.31869  22.45751  1      909
siesta:     33.77320   3.94953  25.25242  1      910
siesta:     33.29888   6.31547  22.01154  2      911
siesta:     31.18805   7.05624  23.28899  3      912
siesta:     35.03554   8.09748  22.62192  3      913
siesta:     32.66393   6.49688  19.16939  2      914
siesta:     33.05132   4.67329  18.28311  1      915
siesta:     30.61169   6.82002  19.04845  1      916
siesta:     33.89225   8.50566  17.47619  2      917
siesta:     32.33134   8.81747  15.45041  3      918
siesta:     33.75808  10.74499  18.70452  3      919
siesta:     36.61724   8.12961  16.50865  2      920
siesta:     37.24463   9.99477  15.89260  1      921
siesta:     37.80777   7.59292  18.08847  1      922
siesta:     37.23140   6.28901  14.29767  2      923
siesta:     35.06577   5.15140  13.46619  3      924
siesta:     37.95138   7.77623  12.30212  3      925
siesta:     39.30821   4.26322  14.61704  2      926
siesta:     40.35512   4.26322  12.83125  1      927
siesta:     40.62724   4.89817  16.05890  1      928
siesta:     38.64114   1.49099  15.23876  2      929
siesta:     36.46228   1.44564  16.59558  3      930
siesta:     38.10067   0.37228  12.96920  3      931
siesta:     40.57811  46.07910  16.63149  2      932
siesta:     42.39602   0.13795  15.69229  1      933
siesta:     40.72172   0.60849  18.52310  1      934
siesta:     40.18882  43.20861  16.92061  2      935
siesta:     38.37657  42.83633  18.67239  3      936
siesta:     39.17593  42.29209  14.75688  3      937
siesta:     42.44327  41.50407  17.62170  2      938
siesta:     42.22784  39.73907  16.59369  1      939
siesta:      1.56847  42.41681  16.89416  1      940
siesta:      0.41574  40.82944  20.41661  2      941
siesta:      2.87050  40.10567  20.50921  3      942
siesta:      0.27968  43.02908  21.74509  3      943
siesta:     41.41903  38.83389  21.83579  2      944
siesta:     41.90658  39.00774  23.83513  1      945
siesta:     39.43860  39.36112  21.62037  1      946
siesta:     41.59289  35.99741  21.16116  2      947
siesta:     41.65714  35.78387  18.61948  3      948
siesta:      1.27368  35.09979  21.98319  3      949
siesta:     39.56521  34.14170  22.15705  2      950
siesta:     40.54409  32.41826  22.69751  1      951
siesta:     38.74885  34.97507  23.83890  1      952
siesta:     37.35045  33.38580  20.42039  2      953
siesta:     35.53064  32.39370  21.93595  3      954
siesta:     36.29976  35.53253  19.47930  3      955
siesta:     37.76241  31.53954  18.18106  2      956
siesta:     36.39992  32.05922  16.72219  1      957
siesta:     39.64458  31.91371  17.39305  1      958
siesta:     37.48462  28.65393  18.48720  2      959
siesta:     35.02420  28.12103  19.03711  3      960
siesta:     37.82855  27.64104  16.11559  3      961
siesta:     39.25341  27.21963  20.32023  2      962
siesta:     41.18282  27.70718  19.77977  1      963
siesta:     38.84334  28.00008  22.21752  1      964
siesta:     39.15325  24.30756  20.56590  2      965
siesta:     40.67070  23.64804  22.51043  3      966
siesta:     36.81188  23.68962  21.44840  3      967
siesta:     39.80332  22.51421  18.32657  2      968
siesta:     39.55198  20.58668  19.01443  1      969
siesta:     38.38413  22.83546  16.86392  1      970
siesta:     42.39602  22.61247  16.98864  2      971
siesta:      0.03213  24.87070  15.79623  3      972
siesta:      1.61950  22.69940  18.81412  3      973
siesta:      0.56503  20.46196  15.15372  2      974
siesta:      2.49633  19.88371  15.63749  1      975
siesta:     41.92548  18.87081  15.59970  1      976
siesta:      0.39117  20.77944  12.24921  2      977
siesta:     42.20705  18.55145  11.24010  3      978
siesta:     40.99951  22.34035  11.73331  3      979
siesta:      2.69097  21.70162  10.70341  2      980
siesta:      2.01067  22.01154   8.80613  1      981
siesta:      3.24088  23.52143  11.49521  1      982
siesta:      5.10982  20.06890  10.52011  2      983
siesta:      6.79546  21.46730   9.16140  3      984
siesta:      6.14161  19.97819  12.85392  3      985
siesta:      4.98132  17.37415   9.36738  2      986
siesta:      3.62072  16.30456  10.45208  1      987
siesta:      4.17252  17.62926   7.46820  1      988
siesta:      7.32080  15.66017   9.04045  2      989
siesta:      6.73310  13.36226  10.04390  3      990
siesta:      7.48710  15.17262   6.51011  3      991
siesta:     10.02311  16.39527   9.93807  2      992
siesta:     11.29112  15.04978   9.02912  1      993
siesta:     10.44830  18.27933   9.19352  1      994
siesta:     10.69018  16.39905  12.78211  2      995
siesta:     11.25521  18.83113  13.44163  3      996
siesta:      8.57747  15.89638  14.14272  3      997
siesta:     12.83880  14.72475  13.83847  2      998
siesta:     14.54145  15.13860  12.75188  1      999
siesta:     13.17518  15.36159  15.75465  1     1000
siesta:     12.52511  11.82402  13.95941  2     1001
siesta:     10.17429  11.25521  14.88727  3     1002
siesta:     12.54212  10.97553  11.51978  3     1003
siesta:     14.43940  10.15728  15.37671  2     1004
siesta:     13.91217   8.19386  14.96097  1     1005
siesta:     16.26866  10.52200  14.49987  1     1006
siesta:     14.80223  10.37649  18.28500  2     1007
siesta:     13.29801  12.21708  19.19585  3     1008
siesta:     13.81012   8.23354  19.30167  3     1009
siesta:     17.44029  10.65995  19.45852  2     1010
siesta:     17.52911   9.41651  21.08935  1     1011
siesta:     18.80845   9.96453  18.11681  1     1012
siesta:     18.46641  13.25643  20.34480  2     1013
siesta:     16.86203  14.19563  22.14004  3     1014
siesta:     20.63771  12.70841  21.60336  3     1015
siesta:     18.96530  15.40694  18.43429  2     1016
siesta:     18.15083  14.84758  16.62015  1     1017
siesta:     17.87871  17.02266  19.14104  1     1018
siesta:     21.66572  16.35559  17.86926  2     1019
siesta:     21.44084  18.03177  15.93040  3     1020
siesta:     22.41027  17.80501  19.85158  3     1021
siesta:     23.87859  14.55657  17.12470  2     1022
siesta:     25.57745  15.73387  17.07935  1     1023
siesta:     24.10347  13.21486  18.67428  1     1024
siesta:     23.84835  12.95597  14.67373  2     1025
siesta:     25.33557  10.89428  15.06112  3     1026
siesta:     21.50509  11.93740  14.42429  3     1027
siesta:     24.53999  14.07658  12.07724  2     1028
siesta:     23.89560  12.74999  10.64294  1     1029
siesta:     23.40805  15.80757  11.84103  1     1030
siesta:     27.27443  14.83058  11.39505  2     1031
siesta:     27.38781  14.93451   8.81180  3     1032
siesta:     27.51820  17.28533  12.12638  3     1033
siesta:     29.58556  13.28667  12.33047  2     1034
siesta:     29.54777  13.36037  14.40728  1     1035
siesta:     29.23596  11.31002  11.80323  1     1036
siesta:     32.30299  13.95563  11.43285  2     1037
siesta:     33.20439  11.91284  10.14027  3     1038
siesta:     32.18772  15.81323   9.64517  3     1039
siesta:     34.35334  14.66428  13.40761  2     1040
siesta:     34.59712  13.06179  14.63971  1     1041
siesta:     36.12591  14.95719  12.42306  1     1042
siesta:     34.00564  16.98675  15.12726  2     1043
siesta:     32.32567  16.31779  16.94518  3     1044
siesta:     36.20717  17.31746  16.41606  3     1045
siesta:     33.26675  19.56245  14.01988  2     1046
siesta:     34.78420  20.13882  12.73487  1     1047
siesta:     31.59812  19.25443  12.86526  1     1048
siesta:     32.69227  21.84335  15.74331  2     1049
siesta:     33.65226  21.39171  18.08847  3     1050
siesta:     34.10012  23.79544  14.82680  3     1051
siesta:     29.99375  22.92428  16.04378  2     1052
siesta:     30.20161  24.91794  16.55023  1     1053
siesta:     29.16793  22.90349  14.14461  1     1054
siesta:     28.04166  21.70162  17.82768  2     1055
siesta:     26.24264  20.60180  16.35370  3     1056
siesta:     29.15471  19.72686  19.06734  3     1057
siesta:     26.63003  23.26632  19.87804  2     1058
siesta:     25.44328  24.58724  18.86892  1     1059
siesta:     25.39415  21.94540  20.87959  1     1060
siesta:     28.07756  24.78188  21.89627  2     1061
siesta:     29.08290  26.80956  20.71519  3     1062
siesta:     26.31445  25.76265  23.54222  3     1063
siesta:     30.18839  23.53655  23.45151  2     1064
siesta:     29.35880  21.84902  24.29622  1     1065
siesta:     31.63781  22.92428  22.14382  1     1066
siesta:     31.50175  25.01242  25.60580  2     1067
siesta:     30.10524  24.66660  27.74497  3     1068
siesta:     33.72596  23.82190  26.07634  3     1069
[...]
siesta:   1083    0.512807   -0.209586   -0.451399
siesta:   1084   -0.459788    0.756728   -0.588692
siesta:   1085   -1.853111    0.737239   -0.072093
siesta:   1086    1.023918   -1.784569    1.511049
siesta:   1087    0.936033    1.188967   -1.356404
siesta:   1088   -0.603943   -0.146673   -0.009167
siesta:   1089   -0.370729   -0.421132    0.511660
siesta:   1090    0.743933    0.115519    0.476290
siesta:   1091   -0.487070   -0.174007    0.311877
siesta:   1092    1.288273    1.230371   -1.245684
siesta:   1093   -1.508008   -0.811414   -0.614839
siesta:   1094    0.033870   -0.515919    0.711580
siesta:   1095    0.131244   -0.105406    0.808607
siesta:   1096    0.808456    0.789631   -0.125193
siesta:   1097    0.618844    0.303216   -0.424097
siesta:   1098   -0.609201    0.589345   -1.758247
siesta:   1099   -0.988170   -1.249741    0.672262
siesta:   1100    0.431571    0.244995    0.691248
siesta:   1101   -0.336830   -0.263944    0.344028
siesta:   1102    0.638037    0.125218    0.562805
siesta:   1103    0.018774   -0.202243    0.754496
siesta:   1104    1.475992    0.477840   -1.325367
siesta:   1105   -2.234612   -0.231581   -0.625260
siesta:   1106   -0.668576   -0.297817   -0.180990
siesta:   1107    0.985227    0.022752    0.833795
siesta:   1108    0.281076    0.541125   -0.578619
siesta:   1109   -0.435471    0.202022   -0.719745
siesta:   1110   -0.711484   -1.874896    0.928404
siesta:   1111    0.815233    0.806611    0.823963
siesta:   1112    0.114092    0.316665   -0.324945
siesta:   1113    0.040961    0.546845   -0.569293
siesta:   1114   -0.423905   -0.556201   -0.562444
siesta:   1115    0.231693   -0.786330   -0.803285
siesta:   1116   -0.512335   -1.027018    1.236247
siesta:   1117    0.579470    1.244521    0.492838
siesta:   1118   -0.320082   -0.338647   -0.791776
siesta:   1119   -0.092918    0.396892    0.938498
siesta:   1120    0.028828    0.461602   -0.350333
siesta:   1121   -0.230185    0.607843    0.644469
siesta:   1122    0.385427    0.199947   -1.675927
siesta:   1123    0.214085   -2.184892    0.774844
siesta:   1124    0.071602    0.145218    0.411348
siesta:   1125   -0.164000    0.525339    0.039006
siesta:   1126   -0.168126    0.033659   -0.543823
siesta:   1127    0.429444   -0.184165   -1.070150
siesta:   1128    0.939453   -0.617786    1.104594
siesta:   1129   -1.252499    1.175476    0.030385
siesta:   1130   -0.402927    0.723073   -0.530652
siesta:   1131    0.430460   -0.731252   -0.171503
siesta:   1132   -0.270761   -0.094363    0.593712
siesta:   1133   -0.133225    1.243743    0.329876
siesta:   1134    1.257619    0.177215   -1.541559
siesta:   1135   -1.018763   -1.776620    0.617242
siesta:   1136    0.634143   -0.153243    0.105264
siesta:   1137   -0.202788    0.143903    0.152152
siesta:   1138    0.487602    0.873904    0.064905
siesta:   1139    0.754454   -1.141018   -0.604595
siesta:   1140   -1.511172   -1.032710    0.295098
siesta:   1141   -0.166669    1.874667   -0.055546
siesta:   1142   -0.273384   -0.100396    0.820615
siesta:   1143    0.836636    0.136840   -0.323940
siesta:   1144   -0.015531   -0.323297   -0.071978
siesta:   1145   -1.081815   -0.467059    1.029780
siesta:   1146    0.433247    2.138519   -0.179595
siesta:   1147    0.524949   -1.263797   -0.667240
siesta:   1148    0.786515    0.591052   -0.109972
siesta:   1149    0.067142   -0.129136   -0.606294
siesta:   1150   -0.390748   -0.671517    0.435970
siesta:   1151    0.893214    0.947575   -0.122197
siesta:   1152   -1.221216   -0.516619   -0.850245
siesta:   1153   -0.663150    0.070152    1.798318
siesta:   1154   -0.997369   -0.550713    0.655363
siesta:   1155    0.841095    0.372461    0.877123
siesta:   1156    0.765967    0.308908   -1.367666
siesta:   1157   -0.772086   -0.962314    0.781493
siesta:   1158    1.309177    1.502496   -0.570132
siesta:   1159   -1.066537   -0.521492   -1.471205
siesta:   1160   -0.089637   -0.274207   -0.150445
siesta:   1161   -0.097822   -0.358767    0.750034
siesta:   1162    0.129030    0.516935    0.354111
siesta:   1163    0.477280    0.491675   -1.097444
siesta:   1164   -0.370910   -1.585039   -0.580316
siesta:   1165   -0.327452    0.167407    1.707491
siesta:   1166    0.328093   -0.419746   -0.239762
siesta:   1167   -0.072390    0.569206    0.205738
siesta:   1168    0.388006    0.179948   -0.822030
siesta:   1169    0.460707   -1.067171    0.435835
siesta:   1170   -0.648644   -0.539786    1.682013
siesta:   1171   -0.398029    1.641412   -0.970480
siesta:   1172    0.101588   -0.192766    0.744857
siesta:   1173    0.064066    0.452247   -1.081435
siesta:   1174    0.650805   -0.699723   -0.174122
siesta:   1175    0.540657   -0.616968    1.249571
siesta:   1176   -1.279245    1.647938    0.455760
siesta:   1177   -0.169954   -0.623562   -1.634770
siesta:   1178   -0.023644    0.310377   -0.704305
siesta:   1179    0.238361   -0.509571   -0.317943
siesta:   1180    0.388985    0.021968    0.819338
siesta:   1181   -0.281462    0.776617   -0.818575
siesta:   1182    0.233917   -1.665883    0.463321
siesta:   1183   -0.126916    1.694342    1.416545
siesta:   1184    0.473436    0.407436   -0.666946
siesta:   1185   -0.016694    0.156708   -0.659647
siesta:   1186   -0.303806   -0.555103   -0.082516
siesta:   1187    0.740406    0.502490    0.162990
siesta:   1188   -1.273495   -0.819155   -1.191219
siesta:   1189   -0.258856   -0.592324    1.727766
siesta:   1190    0.151162   -0.013919   -0.711040
siesta:   1191    0.105723    0.351555    0.619100
siesta:   1192    0.621295    0.484350   -0.248707
siesta:   1193    0.980336   -1.103111   -1.223616
siesta:   1194   -1.548739   -1.049005    0.829067
siesta:   1195    1.300872    1.324958    0.305144
siesta:   1196    0.781900    0.216486    0.353416
siesta:   1197   -0.076277   -0.644228   -0.194797
siesta:   1198   -0.690512    0.593719   -0.066102
siesta:   1199   -0.096948    0.985357    0.380636
siesta:   1200    1.469592   -0.834136    0.581404
siesta:   1201   -0.819551   -1.078870   -1.393290
siesta:   1202    0.351753   -0.415894    0.492829
siesta:   1203   -0.396975    0.145657   -0.186020
siesta:   1204    0.136631    0.487707    0.407857
siesta:   1205    0.218222    0.029742    1.238725
siesta:   1206   -0.082223   -1.648306   -0.766928
siesta:   1207   -0.390027    1.503283   -0.957734
siesta:   1208    0.133792    0.221381    0.354147
siesta:   1209    0.145968   -0.604851    0.347231
siesta:   1210    0.254142   -0.333744   -0.674568
siesta:   1211    0.390965   -0.728705   -1.052926
siesta:   1212   -0.894066    1.220614    0.126218
siesta:   1213    0.634436   -0.246720    1.418081
siesta:   1214   -0.374105   -0.749573   -0.188530
siesta:   1215   -0.264021    0.044166   -0.741760
siesta:   1216    0.104866    0.515638    0.243369
siesta:   1217   -0.174154   -1.126785   -0.026085
siesta:   1218    0.656193    1.129353   -0.916468
siesta:   1219    0.545358    0.303016    1.722690
siesta:   1220   -0.441015    0.428127   -0.530114
siesta:   1221    0.012807   -0.457663    0.159046
siesta:   1222   -0.158663   -0.044402   -0.383527
siesta:   1223   -0.439479    1.217466   -0.692964
siesta:   1224    0.389505   -0.022989    1.781821
siesta:   1225    0.054728   -1.455398   -1.128588
siesta:   1226   -0.453372   -0.215743   -0.353180
siesta:   1227   -0.010264    0.678945    0.210248
siesta:   1228    0.713770   -0.371927    0.548540
siesta:   1229   -0.155548   -0.295077   -0.373071
siesta:   1230   -1.170678    0.043067   -0.492278
siesta:   1231    0.553799    0.937249    0.147312
siesta:   1232    0.302085   -0.531792   -0.241608
siesta:   1233    0.480728    0.155844    0.286340
siesta:   1234   -0.057664   -0.952778    0.427350
siesta:   1235    0.077418   -0.479251    1.069844
siesta:   1236   -1.277288   -0.742057   -0.160130
siesta:   1237    0.304124    1.649100   -1.046361
siesta:   1238   -0.114112   -0.385415   -0.049106
siesta:   1239   -0.282798    0.162997   -0.201714
siesta:   1240    0.718578    0.354243   -0.086496
siesta:   1241    0.419788    0.590001   -1.083801
siesta:   1242    1.925499    0.194297    1.284307
siesta:   1243   -1.883965   -0.926014    0.718185
siesta:   1244   -0.326919    0.859998   -0.754651
siesta:   1245    0.217163   -0.690250    0.649073
siesta:   1246   -0.686876   -0.218748   -0.369536
siesta:   1247   -1.288743    0.400039    1.261789
siesta:   1248    0.745447   -1.153810   -0.209914
siesta:   1249   -0.304913    0.613277   -0.869113
siesta:   1250    1.021966    0.834522    0.236290
siesta:   1251    0.032697    0.108026   -0.287950
siesta:   1252   -0.654494   -0.185904    0.904686
siesta:   1253    0.071015   -0.069723    0.265179
siesta:   1254   -0.192810   -0.147723    0.047805
siesta:   1255   -0.205988    0.414295    0.263714
siesta:   1256    0.582483   -0.833303   -0.088179
siesta:   1257    0.170877    0.037298    1.183166
siesta:   1258   -0.023171   -0.166812   -0.758094
siesta:   1259   -0.669253    0.345784   -0.605241
siesta:   1260    0.129685    0.358460   -0.436342
siesta:   1261    0.073785   -0.128091   -0.399527
siesta:   1262    0.011955   -0.191053   -0.310832
siesta:   1263    0.482915   -0.721395   -0.698605
siesta:   1264   -0.011649   -0.062390   -0.098819
siesta:   1265    0.286130    0.130865    0.541222
siesta:   1266    0.036985    0.003157    0.234450
siesta:   1267   -0.037742   -0.731842    0.474333
siesta:   1268    0.832354    0.114651    0.545958
siesta:   1269   -0.477591    0.793955    0.622835
siesta:   1270    0.227689    0.054342   -0.013319
siesta:   1271    0.293647   -0.199137    0.292032
siesta:   1272    0.317072    0.171620   -0.011203
siesta:   1273   -0.265890    0.337251   -0.225213
siesta:   1274    0.248497   -0.174014   -0.140326
siesta:   1275    0.005335   -0.266703   -0.077955
siesta:   1276   -0.017034   -0.035075    0.024520
siesta:   1277    0.020864    0.000869    0.233124
siesta:   1278   -0.459062    0.834320   -0.425446
siesta:   1279    0.031010    0.122615    0.196425
siesta:   1280    0.553220    0.302965   -0.082308
siesta:   1281   -0.379549   -0.387305   -0.674362
siesta:   1282    0.419430   -0.335672   -0.469492
siesta: ----------------------------------------
siesta:    Tot    0.024859   -0.028938   -0.016824

siesta: Stress tensor (static) (eV/Ang**3):
siesta:    -0.039838   -0.000134    0.001458
siesta:    -0.000135   -0.033765   -0.000045
siesta:     0.001458   -0.000045   -0.042701

siesta: Cell volume =      13041.289483 Ang**3

siesta: Pressure (static):
siesta:                Solid            Molecule  Units
siesta:           0.00042223          0.00053584  Ry/Bohr**3
siesta:           0.03876807          0.04919876  eV/Ang**3
siesta:          62.11396556         78.82595444  kBar
(Free)E+ p_basis*V_orbitals  =     -374497.098635
(Free)Eharris+ p_basis*V_orbitals  =     -374497.139344

Optical: Performing optical calculation: 

Optical: Polarization type       = polarized   
Optical: Minimum of energy range =   0.0001 Ry 
Optical: Maximum of energy range =   7.3498 Ry 
Optical: Gaussian broadening     =   0.0037 Ry 
Optical: Scissor operator        =   0.0000 Ry 
Optical: Number of bands         =    13386
Optical: Number of electrons     =     5346
Optical: BZ mesh dimensions      =    1   1   1

Optical: electric field direction
Optical:      0.00000     0.00000     1.00000

Optical: Checking f-sum rule  0.885954
Optical: For insulators and closed shell systems
Optical: this number should be close to 1 if an enough
Optical: number of unoccupied bands have been included

* Maximum dynamic memory allocated : Node    0 =   421 MB
* Maximum dynamic memory allocated : Node    1 =   419 MB
* Maximum dynamic memory allocated : Node    2 =   416 MB
* Maximum dynamic memory allocated : Node    3 =   424 MB
* Maximum dynamic memory allocated : Node    4 =   426 MB
* Maximum dynamic memory allocated : Node    5 =   424 MB
* Maximum dynamic memory allocated : Node    6 =   419 MB
* Maximum dynamic memory allocated : Node    7 =   419 MB
* Maximum dynamic memory allocated : Node    8 =   414 MB
* Maximum dynamic memory allocated : Node    9 =   412 MB
* Maximum dynamic memory allocated : Node   10 =   412 MB
* Maximum dynamic memory allocated : Node   11 =   421 MB
* Maximum dynamic memory allocated : Node   12 =   423 MB
* Maximum dynamic memory allocated : Node   13 =   424 MB
* Maximum dynamic memory allocated : Node   14 =   423 MB
* Maximum dynamic memory allocated : Node   15 =   422 MB
* Maximum dynamic memory allocated : Node   16 =   422 MB
* Maximum dynamic memory allocated : Node   17 =   419 MB
* Maximum dynamic memory allocated : Node   18 =   423 MB
* Maximum dynamic memory allocated : Node   19 =   425 MB
* Maximum dynamic memory allocated : Node   20 =   420 MB
* Maximum dynamic memory allocated : Node   21 =   422 MB
* Maximum dynamic memory allocated : Node   22 =   423 MB
* Maximum dynamic memory allocated : Node   23 =   427 MB
* Maximum dynamic memory allocated : Node   24 =   418 MB
* Maximum dynamic memory allocated : Node   25 =   416 MB
* Maximum dynamic memory allocated : Node   26 =   423 MB
* Maximum dynamic memory allocated : Node   27 =   428 MB
* Maximum dynamic memory allocated : Node   28 =   419 MB
* Maximum dynamic memory allocated : Node   29 =   419 MB
* Maximum dynamic memory allocated : Node   30 =   422 MB
* Maximum dynamic memory allocated : Node   31 =   418 MB
* Maximum dynamic memory allocated : Node   32 =   415 MB
* Maximum dynamic memory allocated : Node   33 =   415 MB
* Maximum dynamic memory allocated : Node   34 =   423 MB
* Maximum dynamic memory allocated : Node   35 =   427 MB
* Maximum dynamic memory allocated : Node   36 =   418 MB
* Maximum dynamic memory allocated : Node   37 =   416 MB
* Maximum dynamic memory allocated : Node   38 =   418 MB
* Maximum dynamic memory allocated : Node   39 =   412 MB
* Maximum dynamic memory allocated : Node   40 =   423 MB
* Maximum dynamic memory allocated : Node   41 =   421 MB
* Maximum dynamic memory allocated : Node   42 =   422 MB
* Maximum dynamic memory allocated : Node   43 =   420 MB
* Maximum dynamic memory allocated : Node   44 =   416 MB
* Maximum dynamic memory allocated : Node   45 =   414 MB
* Maximum dynamic memory allocated : Node   46 =   396 MB
* Maximum dynamic memory allocated : Node   47 =   395 MB
* Maximum dynamic memory allocated : Node   48 =   403 MB
* Maximum dynamic memory allocated : Node   49 =   402 MB
* Maximum dynamic memory allocated : Node   50 =   403 MB
* Maximum dynamic memory allocated : Node   51 =   404 MB
* Maximum dynamic memory allocated : Node   52 =   402 MB
* Maximum dynamic memory allocated : Node   53 =   404 MB
* Maximum dynamic memory allocated : Node   54 =   394 MB
* Maximum dynamic memory allocated : Node   55 =   394 MB
* Maximum dynamic memory allocated : Node   56 =   401 MB
* Maximum dynamic memory allocated : Node   57 =   403 MB
* Maximum dynamic memory allocated : Node   58 =   407 MB
* Maximum dynamic memory allocated : Node   59 =   403 MB
* Maximum dynamic memory allocated : Node   60 =   408 MB
* Maximum dynamic memory allocated : Node   61 =   405 MB
* Maximum dynamic memory allocated : Node   62 =   397 MB
* Maximum dynamic memory allocated : Node   63 =   397 MB

* Maximum memory occured during rdiag                         

timer: CPU execution times:
timer:  Routine       Calls   Time/call    Tot.time        %
timer:  siesta            115153893.69915153893.699   100.00
timer:  Setup             1     147.352     147.352     0.00
timer:  bands             1       0.036       0.036     0.00
timer:  writewave         1       0.086       0.086     0.00
timer:  KSV_init          1       0.008       0.008     0.00
timer:  IterMD            1  236145.642  236145.642     1.56
timer:  hsparse           1     110.018     110.018     0.00
timer:  overlap           1     116.550     116.550     0.00
timer:  IterSCF          21   10849.640  227842.449     1.50
timer:  kinefsm           2      65.454     130.908     0.00
timer:  nlefsm            2     537.716    1075.432     0.01
timer:  DHSCF            22    5184.963  114069.190     0.75
timer:  DHSCF1            1      68.572      68.572     0.00
timer:  DHSCF2            1    3076.716    3076.716     0.02
timer:  REORD           134       0.088      11.825     0.00
timer:  POISON           23      83.350    1917.061     0.01
timer:  DHSCF3           22    4937.346  108621.611     0.72
timer:  rhoofd           22    2147.107   47236.347     0.31
timer:  cellXC           22      70.164    1543.610     0.01
timer:  vmat             22    2339.190   51462.179     0.34
timer:  MolMec            2       0.110       0.221     0.00
timer:  diagon           21    5575.799  117091.778     0.77
timer:  r-eigvec         21    5108.883  107286.537     0.71
timer:  r-buildHS        21       1.001      21.019     0.00
timer:  rdiag            22    5122.120  112686.641     0.74
timer:  rdiag1           22     178.229    3921.043     0.03
timer:  rdiag2           22    1084.922   23868.275     0.16
timer:  rdiag3           22    3353.743   73782.356     0.49
timer:  rdiag4           22     366.982    8073.612     0.05
timer:  r-buildD         21     466.286    9792.002     0.06
timer:  DHSCF4            1    2275.360    2275.360     0.02
timer:  dfscf             1    2093.898    2093.898     0.01
timer:  overfsm           1      15.622      15.622     0.00
timer:  optical           114917538.40914917538.409    98.44
timer:  phirphiopt        1    1853.478    1853.478     0.01
timer:  transrate         114909926.21014909926.210    98.39
  

elaps: ELAPSED times:
elaps:  Routine       Calls   Time/call    Tot.time        %
elaps:  siesta            1   22630.299   22630.299   100.00
elaps:  Setup             1       2.319       2.319     0.01
elaps:  bands             1       0.001       0.001     0.00
elaps:  writewave         1       0.001       0.001     0.00
elaps:  KSV_init          1       0.000       0.000     0.00
elaps:  IterMD            1    3704.227    3704.227    16.37
elaps:  hsparse           1       1.849       1.849     0.01
elaps:  overlap           1       1.533       1.533     0.01
elaps:  IterSCF          21     170.216    3574.527    15.80
elaps:  kinefsm           2       0.875       1.750     0.01
elaps:  nlefsm            2       8.194      16.388     0.07
elaps:  DHSCF            22      81.216    1786.743     7.90
elaps:  DHSCF1            1       0.969       0.969     0.00
elaps:  DHSCF2            1      48.316      48.316     0.21
elaps:  REORD           134       0.001       0.167     0.00
elaps:  POISON           23       1.435      33.012     0.15
elaps:  DHSCF3           22      77.376    1702.281     7.52
elaps:  rhoofd           22      33.181     729.991     3.23
elaps:  cellXC           22       1.101      24.232     0.11
elaps:  vmat             22      36.662     806.561     3.56
elaps:  MolMec            2       0.002       0.003     0.00
elaps:  diagon           21      87.559    1838.734     8.13
elaps:  r-eigvec         21      80.113    1682.376     7.43
elaps:  r-buildHS        21       0.014       0.296     0.00
elaps:  rdiag            22      80.366    1768.059     7.81
elaps:  rdiag1           22       2.861      62.936     0.28
elaps:  rdiag2           22      17.079     375.747     1.66
elaps:  rdiag3           22      52.625    1157.759     5.12
elaps:  rdiag4           22       5.614     123.512     0.55
elaps:  r-buildD         21       7.437     156.168     0.69
elaps:  DHSCF4            1      35.109      35.109     0.16
elaps:  dfscf             1      32.388      32.388     0.14
elaps:  overfsm           1       0.240       0.240     0.00
elaps:  optical           1   18923.157   18923.157    83.62
elaps:  phirphiopt        1      28.236      28.236     0.12
elaps:  transrate         1   18803.236   18803.236    83.09
  
>> End of run:   2-SEP-2014   2:50:49
