Siesta Version:                                        siesta-3.1
Architecture  : x86_64-unknown-linux-gnu--Intel
Compiler flags: mpif90 -O3 -xSSSE3 -axSSE4.2,SSE4.1 -ip
PARALLEL version
NetCDF support

* Running on   64 nodes in parallel
>> Start of run:  24-MAR-2012   5:00:21

                           ***********************       
                           *  WELCOME TO SIESTA  *       
                           ***********************       

reinit: Reading from standard input
************************** Dump of input data file ****************************
SystemName      optical
SystemLabel     optical
NumberOfAtoms   1282
NumberOfSpecies 4
MD.TypeOfRun    CG
MD.NumCGsteps   0
MD.ConstantVolume  .true.
SolutionMethod  diagon
XC.functional   GGA
XC.authors      PBE
PAO.BasisSize   DZP
DM.NumberPulay  7
DM.MixingWeight 0.1
DirectPhi       .true.
SaveMemory      .true.
MeshCutoff      500 Ry
MaxSCFiterations 200
UseSaveData     .true.
WriteMullikenPop 1
OpticalCalculation      .true.
%block Optical.Mesh
 1 1 1
%endblock Optical.Mesh
Optical.PolarizationType  polarized
%block Optical.Vector
 0.0 0.0 1.0
%endblock Optical.Vector
Optical.Broaden         0.05 eV
Optical.EnergyMinimum   0.001 eV
Optical.EnergyMaximum   100.0 eV
%block ChemicalSpeciesLabel
 1   1   H
 2   6   C
 3   9   F
 4  47   Ag
%endblock ChemicalSpeciesLabel
LatticeConstant 1.0 Ang
%block LatticeParameters
  22.534   24.472   23.649   90.0 90.0 90.0
%endblock LatticeParameters
AtomicCoordinatesFormat Ang
%block AtomicCoordinatesAndAtomicSpecies < struct.coor
%endblock AtomicCoordinatesAndAtomicSpecies
************************** End of input data file *****************************

reinit: -----------------------------------------------------------------------
reinit: System Name: optical
reinit: -----------------------------------------------------------------------
reinit: System Label: optical                                                     
reinit: -----------------------------------------------------------------------

initatom: Reading input for the pseudopotentials and atomic orbitals ----------
 Species number:            1  Label: H Atomic number:           1
 Species number:            2  Label: C Atomic number:           6
 Species number:            3  Label: F Atomic number:           9
 Species number:            4  Label: Ag Atomic number:          47
Ground state valence configuration:   1s01
Reading pseudopotential information in formatted form from H.psf

Valence configuration for pseudopotential generation:
1s( 1.00) rc: 1.33
2p( 0.00) rc: 1.33
3d( 0.00) rc: 0.37
4f( 0.00) rc: 1.33
Ground state valence configuration:   2s02  2p02
Reading pseudopotential information in formatted form from C.psf

Valence configuration for pseudopotential generation:
2s( 2.00) rc: 1.56
2p( 2.00) rc: 1.56
3d( 0.00) rc: 1.56
4f( 0.00) rc: 1.56
Ground state valence configuration:   2s02  2p05
Reading pseudopotential information in formatted form from F.psf

Valence configuration for pseudopotential generation:
2s( 2.00) rc: 1.41
2p( 5.00) rc: 1.41
3d( 0.00) rc: 1.41
4f( 0.00) rc: 1.41
Ground state valence configuration:   5s01  4d10
Reading pseudopotential information in formatted form from Ag.psf

Valence configuration for pseudopotential generation:
5s( 1.00) rc: 2.52
5p( 0.00) rc: 2.72
4d(10.00) rc: 2.52
4f( 0.00) rc: 2.52
For H, standard SIESTA heuristics set lmxkb to 2
 (one more than the basis l, including polarization orbitals).
Use PS.lmax or PS.KBprojectors blocks to override.
For C, standard SIESTA heuristics set lmxkb to 3
 (one more than the basis l, including polarization orbitals).
Use PS.lmax or PS.KBprojectors blocks to override.
For F, standard SIESTA heuristics set lmxkb to 3
 (one more than the basis l, including polarization orbitals).
Use PS.lmax or PS.KBprojectors blocks to override.
For Ag, standard SIESTA heuristics set lmxkb to 3
 (one more than the basis l, including polarization orbitals).
Use PS.lmax or PS.KBprojectors blocks to override.

<basis_specs>
===============================================================================
H                    Z=   1    Mass=  1.0100        Charge= 0.17977+309
Lmxo=0 Lmxkb= 2    BasisType=split      Semic=F
L=0  Nsemic=0  Cnfigmx=1
          n=1  nzeta=2  polorb=1
            splnorm:   0.15000    
               vcte:    0.0000    
               rinn:    0.0000    
                rcs:    0.0000      0.0000    
            lambdas:    1.0000      1.0000    
-------------------------------------------------------------------------------
L=0  Nkbl=1  erefs: 0.17977+309
L=1  Nkbl=1  erefs: 0.17977+309
L=2  Nkbl=1  erefs: 0.17977+309
===============================================================================
</basis_specs>

atom: Called for H                     (Z =   1)

read_vps: Pseudopotential generation method:
read_vps: ATM 3.2.2 Troullier-Martins                       
Total valence charge:    1.00000

xc_check: Exchange-correlation functional:
xc_check: GGA Perdew, Burke & Ernzerhof 1996
V l=0 = -2*Zval/r beyond r=  1.2656
V l=1 = -2*Zval/r beyond r=  1.2498
V l=2 = -2*Zval/r beyond r=  0.3563
All V_l potentials equal beyond r=  1.2656
This should be close to max(r_c) in ps generation
All pots = -2*Zval/r beyond r=  1.2656

VLOCAL1: 99.0% of the norm of Vloc inside     27.100 Ry
VLOCAL1: 99.9% of the norm of Vloc inside     61.762 Ry
atom: Maximum radius for 4*pi*r*r*local-pseudopot. charge    1.48935
atom: Maximum radius for r*vlocal+2*Zval:    1.24984
GHOST: No ghost state for L =  0
GHOST: No ghost state for L =  1
GHOST: No ghost state for L =  2

KBgen: Kleinman-Bylander projectors: 
   l= 0   rc=  1.398961   el= -0.477209   Ekb= -2.001853   kbcos= -0.352188
   l= 1   rc=  1.470814   el=  0.001006   Ekb= -0.423408   kbcos= -0.024395
   l= 2   rc=  1.489346   el=  0.001895   Ekb= -0.481957   kbcos= -0.001574

KBgen: Total number of  Kleinman-Bylander projectors:    9
atom: -------------------------------------------------------------------------

atom: SANKEY-TYPE ORBITALS:
atom: Selected multiple-zeta basis: split     

SPLIT: Orbitals with angular momentum L= 0

SPLIT: Basis orbitals for state 1s

SPLIT: PAO cut-off radius determined from an
SPLIT: energy shift=  0.020000 Ry

   izeta = 1
                 lambda =    1.000000
                     rc =    4.708991
                 energy =   -0.457764
                kinetic =    0.979534
    potential(screened) =   -1.437298
       potential(ionic) =   -1.965615

   izeta = 2
                 rmatch =    3.759707
              splitnorm =    0.150000
                 energy =   -0.339003
                kinetic =    1.582546
    potential(screened) =   -1.921548
       potential(ionic) =   -2.471878

POLgen: Perturbative polarization orbital with L=  1

POLgen: Polarization orbital for state 1s

   izeta = 1
                     rc =    4.708991
                 energy =    0.764951
                kinetic =    1.476882
    potential(screened) =   -0.711931
       potential(ionic) =   -1.204335
atom: Total number of Sankey-type orbitals:  5

atm_pop: Valence configuration (for local Pseudopot. screening):
 1s( 1.00)                                                            
Vna: chval, zval:    1.00000   1.00000

Vna:  Cut-off radius for the neutral-atom potential:   4.708991

atom: _________________________________________________________________________

<basis_specs>
===============================================================================
C                    Z=   6    Mass=  12.010        Charge= 0.17977+309
Lmxo=1 Lmxkb= 3    BasisType=split      Semic=F
L=0  Nsemic=0  Cnfigmx=2
          n=1  nzeta=2  polorb=0
            splnorm:   0.15000    
               vcte:    0.0000    
               rinn:    0.0000    
                rcs:    0.0000      0.0000    
            lambdas:    1.0000      1.0000    
L=1  Nsemic=0  Cnfigmx=2
          n=1  nzeta=2  polorb=1
            splnorm:   0.15000    
               vcte:    0.0000    
               rinn:    0.0000    
                rcs:    0.0000      0.0000    
            lambdas:    1.0000      1.0000    
-------------------------------------------------------------------------------
L=0  Nkbl=1  erefs: 0.17977+309
L=1  Nkbl=1  erefs: 0.17977+309
L=2  Nkbl=1  erefs: 0.17977+309
L=3  Nkbl=1  erefs: 0.17977+309
===============================================================================
</basis_specs>

atom: Called for C                     (Z =   6)

read_vps: Pseudopotential generation method:
read_vps: ATM 3.2.2 Troullier-Martins                       
Total valence charge:    4.00000

xc_check: Exchange-correlation functional:
xc_check: GGA Perdew, Burke & Ernzerhof 1996
V l=0 = -2*Zval/r beyond r=  1.5227
V l=1 = -2*Zval/r beyond r=  1.5227
V l=2 = -2*Zval/r beyond r=  1.5227
V l=3 = -2*Zval/r beyond r=  1.5227
All V_l potentials equal beyond r=  1.4851
This should be close to max(r_c) in ps generation
All pots = -2*Zval/r beyond r=  1.5227

VLOCAL1: 99.0% of the norm of Vloc inside     19.682 Ry
VLOCAL1: 99.9% of the norm of Vloc inside     44.856 Ry
atom: Maximum radius for 4*pi*r*r*local-pseudopot. charge    1.79142
atom: Maximum radius for r*vlocal+2*Zval:    1.54183
GHOST: No ghost state for L =  0
GHOST: No ghost state for L =  1
GHOST: No ghost state for L =  2
GHOST: No ghost state for L =  3

KBgen: Kleinman-Bylander projectors: 
   l= 0   rc=  1.661951   el= -1.010689   Ekb=  5.289847   kbcos=  0.316429
   l= 1   rc=  1.661951   el= -0.388490   Ekb= -4.102504   kbcos= -0.351025
   l= 2   rc=  1.747182   el=  0.001971   Ekb= -1.006005   kbcos= -0.008530
   l= 3   rc=  1.791422   el=  0.003065   Ekb= -0.421399   kbcos= -0.001072

KBgen: Total number of  Kleinman-Bylander projectors:   16
atom: -------------------------------------------------------------------------

atom: SANKEY-TYPE ORBITALS:
atom: Selected multiple-zeta basis: split     

SPLIT: Orbitals with angular momentum L= 0

SPLIT: Basis orbitals for state 2s

SPLIT: PAO cut-off radius determined from an
SPLIT: energy shift=  0.020000 Ry

   izeta = 1
                 lambda =    1.000000
                     rc =    4.088342
                 energy =   -0.990050
                kinetic =    0.909804
    potential(screened) =   -1.899854
       potential(ionic) =   -5.513925

   izeta = 2
                 rmatch =    3.347176
              splitnorm =    0.150000
                 energy =   -0.836186
                kinetic =    1.375045
    potential(screened) =   -2.211230
       potential(ionic) =   -6.057915

SPLIT: Orbitals with angular momentum L= 1

SPLIT: Basis orbitals for state 2p

SPLIT: PAO cut-off radius determined from an
SPLIT: energy shift=  0.020000 Ry

   izeta = 1
                 lambda =    1.000000
                     rc =    4.870301
                 energy =   -0.368677
                kinetic =    2.532104
    potential(screened) =   -2.900781
       potential(ionic) =   -6.401132

   izeta = 2
                 rmatch =    3.475094
              splitnorm =    0.150000
                 energy =   -0.205777
                kinetic =    3.787472
    potential(screened) =   -3.993249
       potential(ionic) =   -7.860448

POLgen: Perturbative polarization orbital with L=  2

POLgen: Polarization orbital for state 2p

   izeta = 1
                     rc =    4.870301
                 energy =    1.296521
                kinetic =    2.641128
    potential(screened) =   -1.344607
       potential(ionic) =   -4.300412
atom: Total number of Sankey-type orbitals: 13

atm_pop: Valence configuration (for local Pseudopot. screening):
 2s( 2.00)                                                            
 2p( 2.00)                                                            
Vna: chval, zval:    4.00000   4.00000

Vna:  Cut-off radius for the neutral-atom potential:   4.870301

atom: _________________________________________________________________________

<basis_specs>
===============================================================================
F                    Z=   9    Mass=  19.000        Charge= 0.17977+309
Lmxo=1 Lmxkb= 3    BasisType=split      Semic=F
L=0  Nsemic=0  Cnfigmx=2
          n=1  nzeta=2  polorb=0
            splnorm:   0.15000    
               vcte:    0.0000    
               rinn:    0.0000    
                rcs:    0.0000      0.0000    
            lambdas:    1.0000      1.0000    
L=1  Nsemic=0  Cnfigmx=2
          n=1  nzeta=2  polorb=1
            splnorm:   0.15000    
               vcte:    0.0000    
               rinn:    0.0000    
                rcs:    0.0000      0.0000    
            lambdas:    1.0000      1.0000    
-------------------------------------------------------------------------------
L=0  Nkbl=1  erefs: 0.17977+309
L=1  Nkbl=1  erefs: 0.17977+309
L=2  Nkbl=1  erefs: 0.17977+309
L=3  Nkbl=1  erefs: 0.17977+309
===============================================================================
</basis_specs>

atom: Called for F                     (Z =   9)

read_vps: Pseudopotential generation method:
read_vps: ATM 3.2.2 Troullier-Martins                       
Total valence charge:    7.00000

xc_check: Exchange-correlation functional:
xc_check: GGA Perdew, Burke & Ernzerhof 1996
V l=0 = -2*Zval/r beyond r=  1.3199
V l=1 = -2*Zval/r beyond r=  1.3199
V l=2 = -2*Zval/r beyond r=  1.3199
V l=3 = -2*Zval/r beyond r=  1.3199
All V_l potentials equal beyond r=  1.3199
This should be close to max(r_c) in ps generation
All pots = -2*Zval/r beyond r=  1.3199

VLOCAL1: 99.0% of the norm of Vloc inside     24.916 Ry
VLOCAL1: 99.9% of the norm of Vloc inside     56.784 Ry
atom: Maximum radius for 4*pi*r*r*local-pseudopot. charge    1.61221
atom: Maximum radius for r*vlocal+2*Zval:    1.38760
GHOST: No ghost state for L =  0
GHOST: No ghost state for L =  1
GHOST: No ghost state for L =  2
GHOST: No ghost state for L =  3

KBgen: Kleinman-Bylander projectors: 
   l= 0   rc=  1.495695   el= -2.197581   Ekb=  5.601452   kbcos=  0.238748
   l= 1   rc=  1.458760   el= -0.816694   Ekb= -9.171639   kbcos= -0.518972
   l= 2   rc=  1.552860   el=  0.001997   Ekb= -1.845583   kbcos= -0.004774
   l= 3   rc=  1.592177   el=  0.003102   Ekb= -0.701684   kbcos= -0.000616

KBgen: Total number of  Kleinman-Bylander projectors:   16
atom: -------------------------------------------------------------------------

atom: SANKEY-TYPE ORBITALS:
atom: Selected multiple-zeta basis: split     

SPLIT: Orbitals with angular momentum L= 0

SPLIT: Basis orbitals for state 2s

SPLIT: PAO cut-off radius determined from an
SPLIT: energy shift=  0.020000 Ry

   izeta = 1
                 lambda =    1.000000
                     rc =    3.012240
                 energy =   -2.180114
                kinetic =    2.050927
    potential(screened) =   -4.231041
       potential(ionic) =  -15.028689

   izeta = 2
                 rmatch =    2.203728
              splitnorm =    0.150000
                 energy =   -1.860487
                kinetic =    3.102500
    potential(screened) =   -4.962987
       potential(ionic) =  -16.601125

SPLIT: Orbitals with angular momentum L= 1

SPLIT: Basis orbitals for state 2p

SPLIT: PAO cut-off radius determined from an
SPLIT: energy shift=  0.020000 Ry

   izeta = 1
                 lambda =    1.000000
                     rc =    3.588372
                 energy =   -0.798309
                kinetic =    6.054328
    potential(screened) =   -6.852638
       potential(ionic) =  -17.288549

   izeta = 2
                 rmatch =    2.259523
              splitnorm =    0.150000
                 energy =   -0.439465
                kinetic =    8.943362
    potential(screened) =   -9.382827
       potential(ionic) =  -20.998650

POLgen: Perturbative polarization orbital with L=  2

POLgen: Polarization orbital for state 2p

   izeta = 1
                     rc =    3.588372
                 energy =    3.121679
                kinetic =    6.160101
    potential(screened) =   -3.038422
       potential(ionic) =  -11.529161
atom: Total number of Sankey-type orbitals: 13

atm_pop: Valence configuration (for local Pseudopot. screening):
 2s( 2.00)                                                            
 2p( 5.00)                                                            
Vna: chval, zval:    7.00000   7.00000

Vna:  Cut-off radius for the neutral-atom potential:   3.588372

atom: _________________________________________________________________________

<basis_specs>
===============================================================================
Ag                   Z=  47    Mass=  107.87        Charge= 0.17977+309
Lmxo=2 Lmxkb= 3    BasisType=split      Semic=F
L=0  Nsemic=0  Cnfigmx=5
          n=1  nzeta=2  polorb=1
            splnorm:   0.15000    
               vcte:    0.0000    
               rinn:    0.0000    
                rcs:    0.0000      0.0000    
            lambdas:    1.0000      1.0000    
L=1  Nsemic=0  Cnfigmx=5
L=2  Nsemic=0  Cnfigmx=4
          n=1  nzeta=2  polorb=0
            splnorm:   0.15000    
               vcte:    0.0000    
               rinn:    0.0000    
                rcs:    0.0000      0.0000    
            lambdas:    1.0000      1.0000    
-------------------------------------------------------------------------------
L=0  Nkbl=1  erefs: 0.17977+309
L=1  Nkbl=1  erefs: 0.17977+309
L=2  Nkbl=1  erefs: 0.17977+309
L=3  Nkbl=1  erefs: 0.17977+309
===============================================================================
</basis_specs>

atom: Called for Ag                    (Z =  47)

read_vps: Pseudopotential generation method:
read_vps: ATM 3.2.2 Troullier-Martins                       
Total valence charge:   11.00000

xc_check: Exchange-correlation functional:
xc_check: GGA Perdew, Burke & Ernzerhof 1996
V l=0 = -2*Zval/r beyond r=  2.4592
V l=1 = -2*Zval/r beyond r=  2.6507
V l=2 = -2*Zval/r beyond r=  2.4592
V l=3 = -2*Zval/r beyond r=  2.4592
All V_l potentials equal beyond r=  2.6507
This should be close to max(r_c) in ps generation
All pots = -2*Zval/r beyond r=  2.6507

VLOCAL1: 99.0% of the norm of Vloc inside      6.178 Ry
VLOCAL1: 99.9% of the norm of Vloc inside     14.079 Ry
atom: Maximum radius for 4*pi*r*r*local-pseudopot. charge    3.19739
atom: Maximum radius for r*vlocal+2*Zval:    2.82168
GHOST: No ghost state for L =  0
GHOST: No ghost state for L =  1
GHOST: No ghost state for L =  2
GHOST: No ghost state for L =  3

KBgen: Kleinman-Bylander projectors: 
   l= 0   rc=  2.966357   el= -0.323666   Ekb=  3.565490   kbcos=  0.247453
   l= 1   rc=  3.003670   el= -0.054265   Ekb=  1.619308   kbcos=  0.223076
   l= 2   rc=  2.786631   el= -0.547066   Ekb= -7.840816   kbcos= -0.714112
   l= 3   rc=  3.079709   el=  0.002953   Ekb= -2.732950   kbcos= -0.012571

KBgen: Total number of  Kleinman-Bylander projectors:   16
atom: -------------------------------------------------------------------------

atom: SANKEY-TYPE ORBITALS:
atom: Selected multiple-zeta basis: split     

SPLIT: Orbitals with angular momentum L= 0

SPLIT: Basis orbitals for state 5s

SPLIT: PAO cut-off radius determined from an
SPLIT: energy shift=  0.020000 Ry

   izeta = 1
                 lambda =    1.000000
                     rc =    6.684855
                 energy =   -0.305483
                kinetic =    0.327133
    potential(screened) =   -0.632616
       potential(ionic) =   -8.088030

   izeta = 2
                 rmatch =    6.279837
              splitnorm =    0.150000
                 energy =   -0.253539
                kinetic =    0.499634
    potential(screened) =   -0.753173
       potential(ionic) =   -8.691029

SPLIT: Orbitals with angular momentum L= 2

SPLIT: Basis orbitals for state 4d

SPLIT: PAO cut-off radius determined from an
SPLIT: energy shift=  0.020000 Ry

   izeta = 1
                 lambda =    1.000000
                     rc =    3.954440
                 energy =   -0.527442
                kinetic =    6.210364
    potential(screened) =   -6.737807
       potential(ionic) =  -18.733043

   izeta = 2
                 rmatch =    2.490121
              splitnorm =    0.150000
                 energy =   -0.148928
                kinetic =    8.576261
    potential(screened) =   -8.725189
       potential(ionic) =  -21.658221

POLgen: Perturbative polarization orbital with L=  1

POLgen: Polarization orbital for state 5s

   izeta = 1
                     rc =    6.684855
                 energy =   -0.001728
                kinetic =    0.597115
    potential(screened) =   -0.598843
       potential(ionic) =   -7.554613
atom: Total number of Sankey-type orbitals: 15

atm_pop: Valence configuration (for local Pseudopot. screening):
 5s( 1.00)                                                            
 5p( 0.00)                                                            
 4d(10.00)                                                            
Vna: chval, zval:   11.00000  11.00000

Vna:  Cut-off radius for the neutral-atom potential:   6.684855

atom: _________________________________________________________________________

prinput: Basis input ----------------------------------------------------------

PAO.BasisType split     

%block ChemicalSpeciesLabel
    1    1 H                       # Species index, atomic number, species label
    2    6 C                       # Species index, atomic number, species label
    3    9 F                       # Species index, atomic number, species label
    4   47 Ag                      # Species index, atomic number, species label
%endblock ChemicalSpeciesLabel

%block PAO.Basis                 # Define Basis set
H                     1                    # Species label, number of l-shells
 n=1   0   2 P   1                   # n, l, Nzeta, Polarization, NzetaPol
   4.709      3.760   
   1.000      1.000   
C                     2                    # Species label, number of l-shells
 n=2   0   2                         # n, l, Nzeta 
   4.088      3.347   
   1.000      1.000   
 n=2   1   2 P   1                   # n, l, Nzeta, Polarization, NzetaPol
   4.870      3.475   
   1.000      1.000   
F                     2                    # Species label, number of l-shells
 n=2   0   2                         # n, l, Nzeta 
   3.012      2.204   
   1.000      1.000   
 n=2   1   2 P   1                   # n, l, Nzeta, Polarization, NzetaPol
   3.588      2.260   
   1.000      1.000   
Ag                    2                    # Species label, number of l-shells
 n=5   0   2 P   1                   # n, l, Nzeta, Polarization, NzetaPol
   6.685      6.280   
   1.000      1.000   
 n=4   2   2                         # n, l, Nzeta 
   3.954      2.490   
   1.000      1.000   
%endblock PAO.Basis

prinput: ----------------------------------------------------------------------

Dumping basis to NetCDF file H.ion.nc
Dumping basis to NetCDF file C.ion.nc
Dumping basis to NetCDF file F.ion.nc
Dumping basis to NetCDF file Ag.ion.nc
coor:   Atomic-coordinates input format  =     Cartesian coordinates
coor:                                          (in Angstroms)

siesta: WARNING: XV file not found

siesta: Atomic coordinates (Bohr) and species
siesta:     14.53767  42.34122  33.02487  2        1
siesta:     15.75654  43.55065  31.86646  1        2
siesta:     14.99876  42.59633  35.02420  1        3
siesta:     12.56668  42.85901  32.69039  1        4
siesta:     14.88727  39.57844  32.25386  2        5
siesta:     17.40438  39.11924  32.29921  3        6
siesta:     13.95563  38.16492  34.15492  3        7
siesta:     13.73076  38.55799  29.78399  2        8
siesta:     12.05457  37.44683  30.27720  1        9
siesta:     13.11848  40.19449  28.68983  1       10
siesta:     15.30301  36.92526  27.92827  2       11
siesta:     13.78178  36.34134  25.93650  3       12
siesta:     17.10581  38.44460  26.86058  3       13
siesta:     16.67495  34.49507  28.75975  2       14
siesta:     16.89605  34.58011  30.78743  1       15
siesta:     15.39560  32.92282  28.36102  1       16
siesta:     19.23364  33.76564  27.53710  2       17
siesta:     19.71363  31.34112  28.21551  3       18
siesta:     18.88593  33.67871  24.98030  3       19
siesta:     21.61848  35.33222  28.00386  2       20
siesta:     22.16650  36.14859  26.18028  1       21
siesta:     21.12148  36.85345  29.24730  1       22
siesta:     24.03355  34.14925  29.08101  2       23
siesta:     25.88737  35.92938  28.80322  3       24
siesta:     23.72552  33.98107  31.64726  3       25
siesta:     25.10502  31.62836  28.10402  2       26
siesta:     24.50787  30.16382  29.42494  1       27
siesta:     24.20551  31.16349  26.32201  1       28
siesta:     27.96229  31.24663  27.70718  2       29
siesta:     28.28354  28.77676  27.06278  3       30
siesta:     28.68416  32.53921  25.60958  3       31
siesta:     29.81800  31.78521  29.89737  2       32
siesta:     28.81267  32.90392  31.28254  1       33
siesta:     30.26965  29.95406  30.76097  1       34
siesta:     32.31811  33.18549  29.42305  2       35
siesta:     31.72851  35.53064  28.56889  3       36
siesta:     33.34612  33.66548  31.73985  3       37
siesta:     34.40437  32.04221  27.71095  2       38
siesta:     33.64470  31.85513  25.80233  1       39
siesta:     35.90292  33.46895  27.58623  1       40
siesta:     35.69694  29.53643  28.41771  2       41
siesta:     33.85257  27.79599  28.61613  3       42
siesta:     37.04243  28.71251  26.39382  3       43
siesta:     37.41281  29.32856  30.77420  2       44
siesta:     36.18638  29.44383  32.40693  1       45
siesta:     38.27642  27.45017  30.75530  1       46
siesta:     39.56521  31.25041  31.26175  2       47
siesta:     40.47039  32.00630  28.98085  3       48
siesta:     38.59767  33.38203  32.34268  3       49
siesta:     41.88013  30.45673  32.86235  2       50
siesta:     42.76263  28.89770  31.88347  1       51
siesta:     43.18971  32.04599  32.82645  1       52
siesta:     41.56265  29.61391  35.65159  2       53
siesta:     39.07955  29.53076  36.25441  3       54
siesta:     42.35823  27.17427  35.74607  3       55
siesta:     42.93082  31.03121  37.80399  2       56
siesta:     42.48862  30.01075  39.53876  1       57
siesta:     44.93204  30.79688  37.49218  1       58
siesta:     42.48106  33.86769  38.33689  2       59
siesta:     42.65303  35.16404  36.12402  3       60
siesta:     40.01875  34.19839  39.05121  3       61
siesta:     44.19315  35.28876  40.24173  2       62
siesta:     46.08288  35.42293  39.35545  1       63
siesta:     43.40136  37.19360  40.45716  1       64
siesta:     44.57110  34.24941  42.95160  2       65
siesta:     45.81076  31.98930  42.79664  3       66
siesta:     46.19059  35.84056  44.11756  3       67
siesta:     42.30721  33.93194  44.74495  2       68
siesta:     41.04487  35.57600  44.45394  1       69
siesta:     41.32833  32.25008  44.11189  1       70
siesta:     42.71161  33.66926  47.63435  2       71
siesta:     44.81487  32.26142  48.06709  3       72
siesta:     43.24073  35.99930  48.58866  3       73
siesta:     40.59889  32.48252  49.23683  2       74
siesta:     38.83767  33.44250  48.74928  1       75
siesta:     40.41370  30.50019  48.66614  1       76
siesta:     40.78220  32.50708  52.15079  2       77
siesta:     43.12735  33.31211  52.88968  3       78
siesta:     39.14002  34.33067  52.94637  3       79
siesta:     40.11512  30.15248  53.70604  2       80
siesta:     40.06410  30.66460  55.70726  1       81
siesta:     38.23484  29.59312  53.13345  1       82
siesta:     41.80076  27.76009  53.50384  2       83
siesta:     41.02219  26.43539  51.43837  3       84
siesta:     44.18181  28.44984  52.94448  3       85
siesta:     41.91414  25.90438  55.76017  2       86
siesta:     43.43726  24.55889  55.39923  1       87
siesta:     42.44705  26.98152  57.40423  1       88
siesta:     39.59167  24.28488  56.44425  2       89
siesta:     39.85245  23.53088  58.88956  3       90
siesta:     37.57533  25.90438  56.44425  3       91
siesta:     38.91704  21.88682  54.91924  2       92
siesta:     40.19827  21.81690  53.30353  1       93
siesta:     39.33844  20.27299  56.14945  1       94
siesta:     36.19583  21.53155  53.91391  2       95
siesta:     34.57822  21.53155  55.95292  3       96
siesta:     35.52309  23.61592  52.58165  3       97
siesta:     35.45506  19.22608  52.27174  2       98
siesta:     33.43305  18.97097  52.55708  1       99
siesta:     35.69883  19.76276  50.26485  1      100
siesta:     36.63802  16.58802  52.62889  2      101
siesta:     36.26386  15.89827  55.07231  3      102
siesta:     35.23585  14.87971  51.30420  3      103
siesta:     39.44427  16.00977  52.02985  2      104
siesta:     40.56488  16.93573  53.52084  1      105
siesta:     39.71450  14.00099  52.24150  1      106
siesta:     40.59889  16.79022  49.46549  2      107
siesta:     40.66692  19.36592  49.45793  3      108
siesta:     43.08955  16.02866  49.46171  3      109
siesta:     39.35545  15.96441  46.95782  2      110
siesta:     37.36557  16.51243  47.01263  1      111
siesta:     40.27953  17.03967  45.45927  1      112
siesta:     39.47073  13.17896  46.14335  2      113
siesta:     41.44171  12.91628  44.53141  3      114
siesta:     40.12079  11.76355  48.20315  3      115
siesta:     37.15203  11.86371  44.97739  2      116
siesta:     37.82288  10.03634  44.32354  1      117
siesta:     35.84245  11.48954  46.51185  1      118
siesta:     35.60623  13.07124  42.78720  2      119
siesta:     33.41226  14.00288  43.76796  3      120
siesta:     36.86479  15.09892  41.90847  3      121
siesta:     34.92026  11.47253  40.45338  2      122
siesta:     33.91304  12.69141  39.16648  1      123
siesta:     36.71172  10.95853  39.56332  1      124
siesta:     33.34234   9.08014  40.75196  2      125
siesta:     32.32378   9.09526  43.10467  3      126
siesta:     31.32600   9.38627  39.20994  3      127
siesta:     34.42893   6.42507  40.21906  2      128
siesta:     33.66359   5.75611  38.41437  1      129
siesta:     36.46228   6.58381  39.96016  1      130
siesta:     34.01130   4.26511  42.13335  2      131
siesta:     35.34167   2.24311  41.27164  3      132
siesta:     35.18671   4.93219  44.30843  3      133
siesta:     31.31466   3.30513  42.73995  2      134
siesta:     31.54143   1.62328  43.92103  1      135
siesta:     30.34523   4.73944  43.85489  1      136
siesta:     29.49675   2.55113  40.59322  2      137
siesta:     30.81389   1.09415  38.90948  3      138
siesta:     27.82434   0.87683  41.59856  3      139
siesta:     28.05111   4.60148  39.06065  2      140
siesta:     27.32545   6.02445  40.33055  1      141
siesta:     29.44761   5.51233  37.83800  1      142
siesta:     25.87036   3.83993  37.24463  2      143
siesta:     26.28043   5.03990  35.00341  3      144
siesta:     26.12925   1.34926  36.67771  3      145
siesta:     23.06034   4.33125  37.93249  2      146
siesta:     22.86192   6.38161  38.19705  1      147
siesta:     21.92650   3.84748  36.30354  1      148
siesta:     21.82257   3.03301  40.22473  2      149
siesta:     23.02443   3.88528  42.33555  3      150
siesta:     19.47553   4.00055  40.51763  3      151
siesta:     21.61092   0.10960  40.44204  2      152
siesta:     23.51387  -0.67841  40.39102  1      153
siesta:     20.86258  -0.27590  42.31665  1      154
siesta:     20.03299  -1.40407  38.52397  2      155
siesta:     18.61003  -3.06703  39.89213  3      156
siesta:     18.32846   0.18141  37.48651  3      157
siesta:     21.21407  -2.89317  36.31299  2      158
siesta:     19.67206  -3.34860  35.05065  1      159
siesta:     22.44051  -1.58737  35.29632  1      160
siesta:     22.72775  -5.37438  36.67204  2      161
siesta:     24.39826  -5.05502  38.60901  3      162
siesta:     21.06668  -7.18663  37.47517  3      163
siesta:     24.12614  -6.55546  34.38736  2      164
siesta:     24.49086  -8.53590  34.84845  1      165
siesta:     22.78255  -6.55357  32.83400  1      166
siesta:     26.62247  -5.39517  33.33478  2      167
siesta:     26.36358  -5.24966  30.76475  3      168
siesta:     26.77176  -2.94230  34.05666  3      169
siesta:     29.18872  -6.64617  33.83178  2      170
siesta:     29.13203  -8.51700  32.97006  1      171
siesta:     30.63436  -5.57469  32.80944  1      172
siesta:     30.17138  -6.99577  36.54921  2      173
siesta:     28.53110  -8.50566  37.78887  3      174
siesta:     32.33890  -8.36204  36.40370  3      175
siesta:     30.70617  -4.68652  38.24429  2      176
siesta:     31.93072  -3.43174  37.17282  1      177
siesta:     28.90904  -3.73788  38.57499  1      178
siesta:     31.99497  -5.04746  40.81054  2      179
siesta:     30.82900  -3.42419  42.43004  3      180
siesta:     31.36758  -7.37938  41.72517  3      181
siesta:     34.88058  -4.65251  41.08644  2      182
siesta:     35.80843  -6.13972  40.00930  1      183
siesta:     35.34734  -2.88561  40.14158  1      184
siesta:     36.17693  -4.55613  43.67915  2      185
siesta:     38.19705  -6.15862  43.61301  3      186
siesta:     37.21250  -2.21854  43.92859  3      187
siesta:     34.63680  -5.09659  46.11689  2      188
siesta:     33.39525  -3.47899  46.40224  1      189
siesta:     33.50675  -6.78601  45.73706  1      190
siesta:     35.86891  -5.60682  48.72283  2      191
siesta:     34.51208  -4.24433  50.39524  3      192
siesta:     35.35679  -8.07102  49.28030  3      193
siesta:     38.69594  -5.10037  49.21794  2      194
siesta:     39.74852  -6.70286  48.43559  1      195
siesta:     39.23640  -3.40718  48.14268  1      196
siesta:     39.60679  -4.75077  51.95615  2      197
siesta:     38.35579  -6.41751  53.48683  3      198
siesta:     42.03131  -5.59359  52.08276  3      199
siesta:     39.47073  -2.09760  53.17313  2      200
siesta:     37.57344  -1.35493  52.88023  1      201
siesta:     39.71450  -2.39239  55.20081  1      202
siesta:     41.37557  -0.00189  52.45882  2      203
siesta:     43.57521  -1.14328  51.74450  3      204
siesta:     40.52330   1.18486  50.33099  3      205
siesta:     42.04642   2.04468  54.43547  2      206
siesta:     40.30409   2.47554  55.45592  1      207
siesta:     43.41081   1.19620  55.72994  1      208
siesta:     43.12168   4.64873  53.63423  2      209
siesta:     41.13557   6.04713  52.78007  3      210
siesta:     43.83033   5.81469  55.80174  3      211
siesta:     45.34400   4.89817  51.75962  2      212
siesta:     47.04853   4.64495  52.88590  1      213
siesta:     45.21550   3.27112  50.47460  1      214
siesta:     45.65391   7.25466  50.10233  2      215
siesta:     48.06142   7.22443  49.18959  3      216
siesta:     44.19504   6.83892  48.03497  3      217
siesta:     45.05109   9.92296  51.04530  2      218
siesta:     45.01896  11.13049  49.35400  1      219
siesta:     43.14624   9.89650  51.82009  1      220
siesta:     46.76318  11.33269  52.96715  2      221
siesta:     47.82521  13.34525  51.75206  3      222
siesta:     45.13235  12.43629  54.60366  3      223
siesta:     48.79842   9.96831  54.54319  2      224
siesta:     47.80442   8.70219  55.83009  1      225
siesta:     49.92091   8.79857  53.24683  1      226
siesta:     50.66358  11.49143  56.18725  2      227
siesta:     52.52874  12.43440  54.65657  3      228
siesta:     49.37289  13.53044  57.05463  3      229
siesta:     51.95615  10.23665  58.47382  2      230
siesta:     50.45571   9.81524  59.80230  1      231
siesta:     52.75551   8.42629  57.85210  1      232
siesta:     54.02162  11.59914  60.03851  2      233
siesta:     52.90857  13.65895  61.08164  3      234
siesta:     54.56019  10.09303  62.07186  3      235
siesta:     56.57653  12.45519  58.94436  2      236
siesta:     56.19481  14.07091  57.75383  1      237
siesta:     57.65557  13.14683  60.56575  1      238
siesta:     58.30374  10.63349  57.47604  2      239
siesta:     60.44102  10.39539  58.93302  3      240
siesta:     57.25117   8.29590  57.43825  3      241
siesta:     59.15223  11.26088  54.74539  2      242
siesta:     57.52896  11.93929  53.70982  1      243
siesta:     60.48638  12.85014  54.87956  1      244
siesta:     60.45614   9.27478  53.04085  2      245
siesta:     61.28195  10.45208  50.90357  3      246
siesta:     62.61988   8.58881  54.21059  3      247
siesta:     59.15412   6.78790  52.16969  2      248
siesta:     60.33142   5.94130  50.72027  1      249
siesta:     59.18058   5.51989  53.78919  1      250
siesta:     56.42913   6.72176  51.13601  2      251
siesta:     54.90979   8.22976  52.54575  3      252
siesta:     56.39890   7.82914  48.80976  3      253
siesta:     55.12522   4.13661  50.80531  2      254
siesta:     53.56431   4.39739  49.47683  1      255
siesta:     56.44236   2.82703  49.89068  1      256
siesta:     54.07264   2.73066  53.16558  2      257
siesta:     55.37845   3.53379  55.21971  3      258
siesta:     51.68214   3.60371  53.60588  3      259
siesta:     53.88367  -0.19464  53.19959  2      260
siesta:     52.05820  -0.63684  54.04052  1      261
siesta:     53.80808  -0.82392  51.23239  1      262
siesta:     55.85655  -1.85760  54.58665  2      263
siesta:     55.77718  -1.26045  57.09621  3      264
siesta:     54.98349  -4.28212  54.55453  3      265
siesta:     58.63445  -1.93508  53.67202  2      266
siesta:     58.69114  -3.35238  52.17158  1      267
siesta:     59.03885  -0.14173  52.76495  1      268
siesta:     60.82275  -2.63806  55.45970  2      269
siesta:     60.25016  -4.92841  56.46693  3      270
siesta:     62.88255  -3.09726  53.96871  3      271
siesta:     61.66179  -0.92219  57.64612  2      272
siesta:     60.14245  -0.92030  59.03318  1      273
siesta:     63.26806  -1.86138  58.51539  1      274
siesta:     62.46114   1.86705  57.18314  2      275
siesta:     64.97448   2.00878  57.62722  3      276
siesta:     62.25138   2.37539  54.64523  3      277
siesta:     61.17991   4.03646  58.66657  2      278
siesta:     61.86777   5.80146  57.86533  1      279
siesta:     59.16546   3.89662  58.28485  1      280
siesta:     61.49360   4.29535  61.56730  2      281
siesta:     62.43847   2.08248  62.43469  3      282
siesta:     63.37577   6.04713  61.97737  3      283
siesta:     59.25617   5.10415  63.26050  2      284
siesta:     59.99316   5.14951  65.19180  1      285
siesta:     58.76295   7.02411  62.74082  1      286
siesta:     56.80897   3.51678  63.31152  2      287
siesta:     54.89279   4.93408  62.32886  3      288
siesta:     56.99605   1.57792  61.62777  3      289
siesta:     55.84143   2.32436  65.79651  2      290
siesta:     54.22571   1.10927  65.30140  1      291
siesta:     57.35699   1.09793  66.51461  1      292
siesta:     55.01184   3.94764  68.08497  2      293
siesta:     56.59165   5.95642  68.24749  3      294
siesta:     52.74417   5.02667  67.54262  3      295
siesta:     54.92302   2.81947  70.78350  2      296
siesta:     56.85621   2.67207  71.49404  1      297
siesta:     53.93092   4.19897  71.94190  1      298
siesta:     53.63423   0.24566  71.33719  2      299
siesta:     53.97816  -1.32848  69.30762  3      300
siesta:     55.03074  -0.83904  73.20613  3      301
siesta:     50.85066   0.13606  72.12899  2      302
siesta:     50.43681  -1.82170  72.57685  1      303
siesta:     50.74106   1.18675  73.89588  1      304
siesta:     48.75306   1.11494  70.34886  2      305
siesta:     48.75684   3.66985  70.55106  3      306
siesta:     49.43526   0.65007  67.89411  3      307
siesta:     45.99406   0.12094  70.60776  2      308
siesta:     45.83344  -1.48344  69.32652  1      309
siesta:     45.77107  -0.63306  72.52772  1      310
siesta:     43.72261   1.85571  70.07863  2      311
siesta:     44.00985   2.65129  67.65978  3      312
siesta:     41.63635   0.36283  69.97848  3      313
siesta:     43.14435   4.16685  71.73781  2      314
siesta:     44.56543   5.58225  71.36365  1      315
siesta:     41.35667   4.93597  71.09530  1      316
siesta:     42.85523   3.91929  74.61587  2      317
siesta:     40.78031   5.25344  75.31506  3      318
siesta:     42.28075   1.47966  75.14121  3      319
siesta:     44.99818   4.61471  76.46213  2      320
siesta:     44.22528   4.47865  78.36319  1      321
siesta:     46.48917   3.19553  76.31662  1      322
siesta:     46.31721   7.23198  76.34686  2      323
siesta:     47.57765   7.50788  78.57484  3      324
siesta:     48.14835   7.06380  74.55728  3      325
siesta:     44.84511   9.71320  75.84041  2      326
siesta:     46.22083  11.22120  75.55317  1      327
siesta:     43.78308   9.42974  74.10186  1      328
siesta:     42.92326  10.69963  77.80761  2      329
siesta:     40.95983  11.61426  76.44701  3      330
siesta:     42.01430   8.73054  79.17200  3      331
siesta:     43.70560  12.81046  79.65955  2      332
siesta:     45.48195  12.20764  80.51937  1      333
siesta:     44.07221  14.47531  78.53894  1      334
siesta:     41.90847  13.62493  81.81573  2      335
siesta:     39.47262  13.38494  81.01259  3      336
siesta:     42.09367  11.88827  83.72057  3      337
siesta:     42.08611  16.27055  83.05917  2      338
siesta:     41.11668  17.61603  81.86108  1      339
siesta:     41.03920  16.17984  84.83362  1      340
siesta:     44.66558  17.40438  83.71112  2      341
siesta:     46.14335  17.31179  81.63053  3      342
siesta:     44.30276  19.92906  84.16088  3      343
siesta:     46.13768  16.39905  86.02226  2      344
siesta:     45.78241  17.76532  87.53971  1      345
siesta:     45.26841  14.59814  86.56461  1      346
siesta:     49.03274  16.00221  85.87108  2      347
siesta:     49.49195  13.96319  84.39520  3      348
siesta:     50.04564  17.97130  84.57851  3      349
siesta:     50.62389  15.73954  88.31450  2      350
siesta:     52.55330  15.32380  87.71167  1      351
siesta:     50.62578  17.58769  89.21779  1      352
siesta:     49.99272  13.81390  90.40264  2      353
siesta:     50.49350  14.97609  92.62118  3      354
siesta:     47.46994  13.41517  90.47445  3      355
siesta:     51.37223  11.23821  90.59918  2      356
siesta:     53.39045  11.64072  90.66721  1      357
siesta:     50.84121  10.46153  92.41331  1      358
siesta:     50.93570   9.13494  88.61307  2      359
siesta:     52.44181   9.62438  86.61185  3      360
siesta:     51.92780   6.98821  89.65809  3      361
siesta:     48.25418   8.45275  87.61908  2      362
siesta:     47.18081   7.52111  89.12141  1      363
siesta:     47.27530  10.20264  87.18444  1      364
siesta:     47.94237   6.74821  85.27770  2      365
siesta:     49.06298   7.94252  83.30672  3      366
siesta:     49.33699   4.60337  85.54794  3      367
siesta:     45.33266   5.96587  84.27993  2      368
siesta:     44.88668   7.40206  82.87208  1      369
siesta:     45.55376   4.21031  83.23680  1      370
siesta:     42.97428   5.68052  85.96746  2      371
siesta:     42.72106   7.80079  87.41877  3      372
siesta:     40.95983   5.81658  84.39142  3      373
siesta:     42.48295   3.38828  87.70033  2      374
siesta:     41.77808   4.17252  89.48235  1      375
siesta:     40.95605   2.31114  86.81972  1      376
siesta:     44.57110   1.49666  88.44489  2      377
siesta:     45.91658   0.94297  86.31894  3      378
siesta:     46.25862   2.64184  90.01903  3      379
siesta:     43.83977  -1.02990  89.68455  2      380
siesta:     43.91914  -0.75778  91.74246  1      381
siesta:     41.91225  -1.47777  89.11007  1      382
siesta:     45.43281  -3.42041  89.14787  2      383
siesta:     44.21016  -5.41974  90.20611  3      384
siesta:     45.24951  -3.90796  86.63075  3      385
siesta:     48.23528  -3.60560  89.91320  2      386
siesta:     49.04030  -5.21187  88.90787  1      387
siesta:     49.18203  -1.90295  89.20078  1      388
siesta:     48.98361  -3.89284  92.71000  2      389
siesta:     51.56120  -3.97221  92.78748  3      390
siesta:     48.35244  -1.70642  93.92321  3      391
siesta:     48.04631  -6.21153  94.19722  2      392
siesta:     46.18681  -5.73910  94.90964  1      393
siesta:     47.74584  -7.76867  92.83661  1      394
siesta:     49.55053  -7.35293  96.39119  2      395
siesta:     49.78296  -5.55769  98.24690  3      396
siesta:     48.02741  -9.11037  97.49668  3      397
siesta:     52.16213  -8.60204  96.00379  2      398
siesta:     53.51518  -7.04679  95.91120  1      399
siesta:     52.56653  -9.69430  97.71022  1      400
siesta:     52.76306 -10.29145  93.68888  2      401
siesta:     52.39835  -8.90439  91.53648  3      402
siesta:     55.30475 -10.72231  93.75124  3      403
siesta:     51.37978 -12.84069  93.40920  2      404
siesta:     51.94103 -14.02366  95.01547  1      405
siesta:     49.36722 -12.44952  93.55093  1      406
siesta:     51.78230 -14.44885  91.01492  2      407
siesta:     50.24973 -16.50676  91.18499  3      408
siesta:     50.80153 -13.16762  89.01369  3      409
siesta:     54.43736 -15.35592  90.18344  2      410
siesta:     54.21437 -16.22331  88.37119  1      411
siesta:     55.56742 -13.66650  89.94533  1      412
siesta:     56.03418 -17.17573  91.85017  2      413
siesta:     56.71826 -15.93229  93.99313  3      414
siesta:     54.52807 -19.08435  92.69866  3      415
siesta:     58.43602 -18.40972  90.77114  2      416
siesta:     59.22404 -19.57001  92.26591  1      417
siesta:     57.82564 -19.68906  89.22723  1      418
siesta:     60.60921 -16.76377  89.72612  2      419
siesta:     62.08131 -18.26232  88.25969  3      420
siesta:     59.61521 -15.10270  88.03482  3      421
siesta:     62.39689 -15.25577  91.45711  2      422
siesta:     62.82019 -13.51344  90.47067  1      423
siesta:     61.42368 -14.79467  93.20133  1      424
siesta:     64.94235 -16.43684  92.26591  2      425
siesta:     65.75305 -15.09136  94.29926  3      426
siesta:     64.47559 -18.80467  93.16731  3      427
siesta:     67.18924 -16.61448  90.38186  2      428
siesta:     66.86610 -18.29067  89.23290  1      429
siesta:     67.12121 -15.00065  89.09873  1      430
siesta:     69.88399 -16.81668  91.44766  2      431
siesta:     69.77250 -18.40405  93.47723  3      432
siesta:     71.32018 -18.13004  89.77148  3      433
siesta:     71.36743 -14.42240  92.29237  2      434
siesta:     69.91234 -13.07880  92.92543  1      435
siesta:     72.53717 -14.93640  93.92321  1      436
siesta:     73.14566 -13.12226  90.34217  2      437
siesta:     71.80584 -12.92951  88.16710  3      438
siesta:     73.44990 -10.68830  91.15665  3      439
siesta:     75.77616 -14.23531  89.66565  2      440
siesta:     77.04605 -13.85170  91.25302  1      441
siesta:     75.55128 -16.27244  89.48046  1      442
siesta:     77.23692 -13.33391  87.29404  2      443
siesta:     77.93612 -10.87727  87.69844  3      444
siesta:     79.46679 -14.61704  87.34129  3      445
siesta:     76.15788 -13.49643  84.59362  2      446
siesta:     74.59130 -12.15661  84.46701  1      447
siesta:     77.65077 -12.86904  83.32373  1      448
siesta:     75.22247 -16.07213  83.55616  2      449
siesta:     76.32796 -16.42362  81.28471  3      450
siesta:     76.18434 -17.95618  85.01692  3      451
siesta:     72.37465 -16.71274  83.26515  2      452
siesta:     72.29528 -18.65349  82.56784  1      453
siesta:     71.57341 -16.71463  85.16999  1      454
siesta:     70.65311 -15.12915  81.51715  2      455
siesta:     72.03828 -13.17518  80.59307  3      456
siesta:     70.13532 -16.57101  79.44790  3      457
siesta:     68.12087 -14.07658  82.49603  2      458
siesta:     68.50260 -13.02967  84.24213  1      459
siesta:     67.48971 -12.68763  81.12031  1      460
siesta:     65.86265 -15.85292  82.99303  2      461
siesta:     66.74893 -17.80879  84.43678  3      462
siesta:     64.27717 -14.61704  84.54638  3      463
siesta:     64.33764 -16.98675  80.79905  2      464
siesta:     65.55463 -16.94518  79.11531  1      465
siesta:     63.98237 -18.94640  81.24314  1      466
siesta:     61.82808 -15.73009  80.05828  2      467
siesta:     62.24949 -13.20163  79.70490  3      468
siesta:     61.26306 -16.56913  77.68856  3      469
siesta:     59.45837 -16.07024  81.68722  2      470
siesta:     58.39445 -17.63871  80.85196  1      471
siesta:     60.09331 -16.67306  83.56372  1      472
siesta:     57.57053 -13.86493  82.01793  2      473
siesta:     56.54063 -13.33958  79.70679  3      474
siesta:     55.58821 -14.80790  83.44656  3      475
siesta:     58.41146 -11.35915  83.26515  2      476
siesta:     59.85521 -11.80134  84.67488  1      477
siesta:     59.33553 -10.21775  81.80628  1      478
siesta:     56.49527  -9.63572  84.58795  2      479
siesta:     56.75606 -10.10059  87.12397  3      480
siesta:     57.25872  -7.17907  84.26670  3      481
siesta:     53.64935  -9.71509  83.97001  2      482
siesta:     53.46793 -10.26122  82.00281  1      483
siesta:     52.84243 -11.20608  85.16621  1      484
siesta:     52.01284  -7.29246  84.33851  2      485
siesta:     49.69415  -8.05591  85.16054  3      486
siesta:     52.96149  -5.99610  86.36430  3      487
siesta:     51.61033  -5.37816  82.16532  2      488
siesta:     51.02641  -3.57536  83.04027  1      489
siesta:     53.47360  -5.06258  81.33196  1      490
siesta:     49.74895  -5.91862  79.98458  2      491
siesta:     50.62200  -4.63928  77.92667  3      492
siesta:     49.92847  -8.38472  79.31940  3      493
siesta:     46.92381  -5.32903  80.26993  2      494
siesta:     45.89958  -6.67263  79.11153  1      495
siesta:     46.42492  -5.77123  82.22580  1      496
siesta:     45.88635  -2.65885  79.66144  2      497
siesta:     47.69671  -0.92408  80.29827  3      498
siesta:     45.73328  -2.43019  77.10464  3      499
siesta:     43.36545  -1.72154  80.80850  2      500
siesta:     43.81899  -1.04502  82.69445  1      501
siesta:     42.74373  -0.11905  79.65955  1      502
siesta:     41.06188  -3.45820  81.14109  2      503
siesta:     41.81021  -5.44241  82.61697  3      504
siesta:     39.35734  -2.22799  82.65098  3      505
siesta:     39.64080  -4.53157  78.82429  2      506
siesta:     41.08644  -5.19864  77.48258  1      507
siesta:     38.57311  -6.17374  79.48380  1      508
siesta:     37.77186  -2.83837  77.33329  2      509
siesta:     35.38325  -3.35427  78.14021  3      510
siesta:     38.19327  -0.37417  78.04950  3      511
siesta:     37.77375  -2.79680  74.41366  2      512
siesta:     36.31488  -1.49288  73.82218  1      513
siesta:     39.56899  -1.99933  73.84864  1      514
siesta:     37.38447  -5.26856  72.89810  2      515
siesta:     37.32589  -7.20742  74.55162  3      516
siesta:     34.99774  -5.17785  71.88143  3      517
siesta:     39.18538  -5.96020  70.70791  2      518
siesta:     38.34634  -7.51355  69.66100  1      519
siesta:     39.19483  -4.33692  69.45313  1      520
siesta:     41.98784  -6.60082  71.21247  2      521
siesta:     43.20105  -6.24177  68.99393  3      522
siesta:     42.96483  -4.82069  72.82063  3      523
siesta:     42.75129  -9.26533  72.21969  2      524
siesta:     41.82910  -9.48832  74.08863  1      525
siesta:     41.91225 -10.63727  70.93279  1      526
siesta:     45.55943 -10.00799  72.63921  2      527
siesta:     46.43437  -8.77589  74.69523  3      528
siesta:     45.60856 -12.46086  73.39321  3      529
siesta:     47.50017  -9.72642  70.46414  2      530
siesta:     48.80976 -11.32324  70.63421  1      531
siesta:     46.48350  -9.89461  68.66890  1      532
siesta:     49.20471  -7.38127  70.28461  2      533
siesta:     47.90647  -5.37438  71.18034  3      534
siesta:     51.06231  -7.68552  72.04584  3      535
siesta:     50.51807  -6.55357  67.79962  2      536
siesta:     49.53541  -4.84526  67.19113  1      537
siesta:     52.42291  -6.03768  68.34575  1      538
siesta:     50.70137  -8.32236  65.48093  2      539
siesta:     50.98105 -10.74121  66.31808  3      540
siesta:     48.42614  -8.36393  64.24315  3      541
siesta:     52.83487  -7.87827  63.53073  2      542
siesta:     54.63200  -8.20897  64.45669  1      543
siesta:     52.63834  -9.32202  62.08509  1      544
siesta:     53.04463  -5.32714  62.14367  2      545
siesta:     53.46982  -3.47143  63.86710  3      546
siesta:     55.26317  -5.44808  60.86054  3      547
siesta:     50.95082  -4.49377  60.26906  2      548
siesta:     51.85788  -4.16685  58.45492  1      549
siesta:     49.70360  -6.09059  60.01584  1      550
siesta:     49.25951  -2.17886  60.84354  2      551
siesta:     47.24695  -2.31303  59.21459  3      552
siesta:     48.17292  -2.54546  63.14711  3      553
siesta:     50.27429   0.53857  60.78873  2      554
siesta:     50.87334   0.98077  62.68224  1      555
siesta:     51.93914   0.57448  59.58120  1      556
siesta:     48.58866   2.75333  59.90623  2      557
siesta:     50.05886   4.85660  59.87222  3      558
siesta:     48.01985   2.32058  57.43825  3      559
siesta:     46.08855   3.41852  61.29896  2      560
siesta:     44.53141   3.16151  59.94403  1      561
siesta:     45.82210   2.02201  62.80318  1      562
siesta:     45.67659   6.05657  62.47248  2      563
siesta:     45.86556   7.82347  60.61488  3      564
siesta:     43.20483   6.16051  63.20758  3      565
siesta:     47.35656   6.99010  64.67023  2      566
siesta:     47.68348   5.34982  65.90800  1      567
siesta:     49.19904   7.59292  63.89733  1      568
siesta:     46.41925   9.13683  66.39933  2      569
siesta:     45.61801  11.09459  64.95558  3      570
siesta:     44.29142   8.33747  67.61443  3      571
siesta:     48.19748  10.21208  68.44213  2      572
siesta:     47.02018  10.50310  70.09375  1      573
siesta:     49.60533   8.76644  68.89755  1      574
siesta:     49.61100  12.71408  67.95080  2      575
siesta:     50.60311  12.70085  65.56974  3      576
siesta:     47.90647  14.62838  67.85631  3      577
siesta:     51.69726  13.61170  69.79895  2      578
siesta:     52.06764  15.57324  69.39644  1      579
siesta:     50.94515  13.52855  71.69813  1      580
siesta:     54.30697  12.24543  69.80462  2      581
siesta:     55.70726  13.40761  71.61687  3      582
siesta:     53.93092   9.87004  70.74759  3      583
siesta:     55.88111  12.01866  67.33664  2      584
siesta:     55.38034  10.20830  66.48815  1      585
siesta:     55.25561  13.52100  66.03462  1      586
siesta:     58.79129  12.10181  67.33853  2      587
siesta:     59.58687  11.11159  65.10676  3      588
siesta:     59.44325  14.57924  67.18924  3      589
siesta:     60.37866  10.88672  69.47959  2      590
siesta:     60.42969  12.20764  71.03294  1      591
siesta:     59.35821   9.21998  70.09564  1      592
siesta:     63.15278  10.10626  69.00905  2      593
siesta:     63.24538   8.51511  66.99460  3      594
siesta:     64.43780  12.19819  68.25693  3      595
siesta:     64.70425   8.84581  71.14255  2      596
siesta:     66.66578   9.45430  70.87232  1      597
siesta:     64.02773   9.69808  72.88866  1      598
siesta:     64.77228   5.94697  71.46191  2      599
siesta:     62.42902   5.01911  70.95735  3      600
siesta:     66.32941   5.03045  69.64210  3      601
siesta:     65.68124   4.78101  73.97714  2      602
siesta:     67.74671   4.86416  74.05651  1      603
siesta:     64.97826   6.04524  75.44735  1      604
siesta:     64.93291   2.04279  74.72169  2      605
siesta:     66.17257   1.55525  76.91377  3      606
siesta:     62.46492   2.02579  75.41711  3      607
siesta:     65.46203  -0.22677  72.95102  2      608
siesta:     65.75494   0.50078  71.01405  1      609
siesta:     67.22514  -1.04124  73.56896  1      610
siesta:     63.55151  -2.40373  72.76015  2      611
siesta:     64.85165  -4.53534  72.06473  3      612
siesta:     62.78807  -2.97821  75.13932  3      613
siesta:     61.15912  -2.10138  71.11609  2      614
siesta:     59.72293  -3.43552  71.78883  1      615
siesta:     60.44669  -0.19464  71.50160  1      616
siesta:     61.33675  -2.37161  68.22292  2      617
siesta:     59.03318  -3.22009  67.44435  3      618
siesta:     61.57486   0.02079  67.31018  3      619
siesta:     63.44758  -3.95331  66.93791  2      620
siesta:     65.25227  -3.10860  67.50860  1      621
siesta:     63.33609  -5.82225  67.76561  1      622
siesta:     63.54585  -4.22165  64.04662  2      623
siesta:     61.33487  -3.42796  63.03184  3      624
siesta:     65.27873  -2.50767  63.18113  3      625
siesta:     64.21481  -6.76711  62.75783  2      626
siesta:     63.59309  -6.61971  60.80385  1      627
siesta:     66.28784  -6.90884  62.75972  1      628
siesta:     63.23026  -9.28612  63.81608  2      629
siesta:     63.97670 -11.10592  62.16823  3      630
siesta:     64.60220  -9.79445  65.94391  3      631
siesta:     60.39378  -9.60359  64.45480  2      632
siesta:     60.14812  -9.11226  66.42390  1      633
siesta:     59.35632  -8.22598  63.32853  1      634
siesta:     59.01050 -12.13961  64.10898  2      635
siesta:     57.25683 -12.19252  65.95525  3      636
siesta:     57.60265 -11.97520  61.94903  3      637
siesta:     60.35032 -14.74932  64.06930  2      638
siesta:     61.43313 -14.86459  62.30618  1      639
siesta:     61.69958 -14.79845  65.59809  1      640
siesta:     58.77995 -17.22297  64.17324  2      641
siesta:     57.65368 -17.51210  61.89989  3      642
siesta:     60.46370 -19.19963  64.24504  3      643
siesta:     56.79952 -17.71430  66.24816  2      644
siesta:     56.99794 -19.68151  66.77917  1      645
siesta:     57.32298 -16.53322  67.89033  1      646
siesta:     53.95926 -17.22108  65.75116  2      647
siesta:     53.74383 -15.38805  63.94269  3      648
siesta:     52.89535 -19.31679  64.67779  3      649
siesta:     52.26796 -16.28000  67.93946  2      650
siesta:     53.11455 -14.53011  68.63677  1      651
siesta:     50.47083 -15.78678  67.08152  1      652
siesta:     51.75206 -18.08847  70.20146  2      653
siesta:     50.10422 -19.91205  69.36243  3      654
siesta:     53.90446 -19.40372  70.75704  3      655
siesta:     50.64468 -17.06234  72.71291  2      656
siesta:     48.91936 -16.02866  72.22158  1      657
siesta:     50.09666 -18.71963  73.81651  1      658
siesta:     52.18859 -15.30112  74.47603  2      659
siesta:     54.30697 -16.52755  75.22814  3      660
siesta:     53.03896 -13.33580  73.05117  3      661
siesta:     50.95271 -14.08980  76.83063  2      662
siesta:     52.38890 -12.88794  77.69612  1      663
siesta:     49.45982 -12.86715  76.16166  1      664
siesta:     49.83399 -15.74709  78.95279  2      665
siesta:     49.37289 -14.12571  80.90299  3      666
siesta:     47.53986 -16.62015  78.15910  3      667
siesta:     51.29097 -18.07713  80.01671  2      668
siesta:     51.21349 -19.53600  78.57673  1      669
siesta:     53.25250 -17.55745  80.22458  1      670
siesta:     50.47649 -19.29600  82.54327  2      671
siesta:     50.80531 -17.55556  84.37631  3      672
siesta:     47.95182 -19.66261  82.52626  3      673
siesta:     51.72938 -21.80178  83.40876  2      674
siesta:     50.23839 -22.91105  84.31772  1      675
siesta:     52.29252 -22.82790  81.70423  1      676
siesta:     53.96871 -21.86036  85.28904  2      677
siesta:     55.78285 -20.25976  84.45945  3      678
siesta:     53.18825 -20.75676  87.51136  3      679
siesta:     55.19136 -24.39259  86.04871  2      680
siesta:     56.21371 -24.06945  87.81372  1      681
siesta:     53.66824 -25.71162  86.47579  1      682
siesta:     57.04519 -25.74942  84.20812  2      683
siesta:     56.08331 -28.10591  83.80750  3      684
siesta:     56.82598 -24.62125  81.91588  3      685
siesta:     59.89300 -26.06689  84.75803  2      686
siesta:     60.05174 -27.63159  86.06005  1      687
siesta:     60.76228 -26.66783  82.99869  1      688
siesta:     61.45770 -23.83890  85.77470  2      689
siesta:     61.09487 -21.83957  84.18544  3      690
siesta:     60.42780 -23.14915  87.99324  3      691
siesta:     64.32063 -24.07134  86.29249  2      692
siesta:     64.93102 -22.19673  86.90665  1      693
siesta:     64.53417 -25.38848  87.87797  1      694
siesta:     66.16123 -24.88959  84.19300  2      695
siesta:     66.10643 -27.47663  84.06828  3      696
siesta:     65.22392 -24.11858  81.93289  3      697
siesta:     68.98637 -24.06756  84.23269  2      698
siesta:     69.98415 -25.27321  82.87586  1      699
siesta:     69.00905 -22.13815  83.50136  1      700
siesta:     70.56618 -24.04111  86.70634  2      701
siesta:     72.33686 -22.17028  86.34162  3      702
siesta:     69.09219 -23.13026  88.62063  3      703
siesta:     72.02316 -26.40137  87.58884  2      704
siesta:     70.76649 -28.03977  87.30349  1      705
siesta:     73.68045 -26.60735  86.37375  1      706
siesta:     72.97747 -26.58468  90.32517  2      707
siesta:     75.36798 -27.51820  90.22501  3      708
siesta:     73.32518 -24.19795  91.21901  3      709
siesta:     71.48837 -28.12858  92.32828  2      710
siesta:     71.70191 -30.13547  91.83884  1      711
siesta:     72.42945 -27.82434  94.13863  1      712
siesta:     68.66512 -27.71662  92.76669  2      713
siesta:     67.44246 -28.09646  90.54059  3      714
siesta:     67.88466 -29.72918  94.17643  3      715
siesta:     67.67868 -25.20329  93.85706  2      716
siesta:     69.12243 -23.83135  93.35062  1      717
siesta:     65.98548 -24.67605  92.79315  1      718
siesta:     67.04562 -24.84802  96.68599  2      719
siesta:     64.48126 -24.69495  96.83716  3      720
siesta:     67.64088 -26.97207  97.98423  3      721
siesta:     68.11332 -22.56523  98.17887  2      722
siesta:     67.76561 -20.89093  97.02236  1      723
siesta:     67.00216 -22.41405  99.91364  1      724
siesta:     70.90444 -22.56145  98.99523  2      725
siesta:     71.16145 -23.93150 101.16842  3      726
siesta:     72.19702 -23.92205  97.24535  3      727
siesta:     72.35197 -20.07268  99.36940  2      728
siesta:     74.22091 -20.62826 100.01191  1      729
siesta:     72.59386 -19.20907  97.51747  1      730
siesta:     71.40522 -17.99776 101.21944  2      731
siesta:     68.83897 -18.03366 101.21755  3      732
siesta:     72.08174 -18.68940 103.61372  3      733
siesta:     72.20646 -15.25765 100.82827  2      734
siesta:     71.10286 -14.52444  99.24846  1      735
siesta:     71.64144 -14.23342 102.55926  1      736
siesta:     75.00326 -14.57924 100.30859  2      737
siesta:     76.51882 -16.41606 101.27046  3      738
siesta:     75.35664 -14.77200  97.74612  3      739
siesta:     76.14088 -12.04890 101.20243  2      740
siesta:     76.73236 -12.30968 103.17342  1      741
siesta:     77.81706 -11.75032 100.09127  1      742
siesta:     74.59130  -9.58469 101.10795  2      743
siesta:     72.99637  -9.71887  99.08972  3      744
siesta:     73.02850  -9.57147 103.15074  3      745
siesta:     76.01615  -7.05624 100.99645  2      746
siesta:     77.75470  -7.38316 102.03580  1      747
siesta:     76.48859  -6.77467  99.00279  1      748
siesta:     74.86531  -4.56180 101.96210  2      749
siesta:     74.57240  -4.61093 104.52268  3      750
siesta:     76.69268  -2.72877 101.58983  3      751
siesta:     72.43134  -3.56780 100.75079  2      752
siesta:     72.95858  -2.02201  99.49034  1      753
siesta:     71.69624  -5.06258  99.54892  1      754
siesta:     70.19957  -2.72688 102.39485  2      755
siesta:     68.17946  -2.30169 100.84527  3      756
siesta:     69.44935  -4.70731 103.85561  3      757
siesta:     70.43579  -0.41007 104.18631  2      758
siesta:     68.59898  -0.23811 105.08393  1      759
siesta:     71.82663  -0.92408 105.61872  1      760
siesta:     71.19168   2.23933 103.21688  2      761
siesta:     73.74659   2.30925 103.17531  3      762
siesta:     70.59642   2.37917 100.69032  3      763
siesta:     70.25627   4.68274 104.51323  2      764
siesta:     71.52427   6.21153 103.93687  1      765
siesta:     68.41000   5.12872 103.75167  1      766
siesta:     70.06729   4.86794 107.41397  2      767
siesta:     68.44213   3.07081 108.29080  3      768
siesta:     72.33497   4.09126 108.41741  3      769
siesta:     69.20936   7.36805 108.64985  2      770
siesta:     67.96970   8.30535 107.27413  1      771
siesta:     68.06418   6.82002 110.25989  1      772
siesta:     71.14066   9.34659 109.62306  2      773
siesta:     71.93434   8.58125 111.96443  3      774
siesta:     73.23637   9.24454 108.13584  3      775
siesta:     70.33941  12.14716 109.84226  2      776
siesta:     69.62510  12.69330 107.97521  1      777
siesta:     68.73504  12.20764 111.14240  1      778
siesta:     72.20835  14.23531 110.69453  2      779
siesta:     71.10664  15.34458 112.73544  3      780
siesta:     74.28138  13.13927 111.70176  3      781
siesta:     73.02094  16.43495 108.93520  2      782
siesta:     71.32774  17.44407 108.37395  1      783
siesta:     74.11320  17.71241 110.11061  1      784
siesta:     74.62720  15.95685 106.54469  2      785
siesta:     76.67567  17.51399 106.72044  3      786
siesta:     75.63821  13.60414 106.66374  3      787
siesta:     73.50471  16.40661 103.88396  2      788
siesta:     72.09119  17.90138 104.02191  1      789
siesta:     75.04861  17.17384 102.76335  1      790
siesta:     72.31418  14.21831 102.30981  2      791
siesta:     74.09997  13.34525 100.65819  3      792
siesta:     71.78317  12.24354 103.86128  3      793
siesta:     69.91800  14.71908 100.69032  2      794
siesta:     68.87110  16.24409 101.57471  1      795
siesta:     70.53972  15.42206  98.84405  1      796
siesta:     68.02261  12.53834 100.18576  2      797
siesta:     66.75271  12.09992 102.38918  3      798
siesta:     66.20091  13.43407  98.56626  3      799
siesta:     68.94857   9.93429  99.20499  2      800
siesta:     70.53406   9.33525 100.41631  1      801
siesta:     67.40845   8.61904  99.42798  1      802
siesta:     69.89722   9.67162  96.47434  2      803
siesta:     71.63199  11.56513  96.05671  3      804
siesta:     71.32585   7.52111  96.41387  3      805
siesta:     68.03584   9.62249  94.23312  2      806
siesta:     66.12910   9.51100  94.99657  1      807
siesta:     68.15867  11.48576  93.30337  1      808
siesta:     68.18513   7.66662  92.05804  2      809
siesta:     66.11587   8.06724  90.56705  3      810
siesta:     70.12965   8.31102  90.48579  3      811
siesta:     68.34764   4.77912  92.53048  2      812
siesta:     68.24749   3.89473  90.66910  1      813
siesta:     70.20524   4.36149  93.29960  1      814
siesta:     66.35209   3.45064  94.20666  2      815
siesta:     66.08942   4.82636  96.37040  3      816
siesta:     64.06552   3.62072  93.09362  3      817
siesta:     66.71492   0.68597  95.01736  2      818
siesta:     68.09442   0.70865  96.57071  1      819
siesta:     64.90834  -0.00567  95.75624  1      820
siesta:     67.64088  -1.33793  93.14842  2      821
siesta:     66.01950  -1.31714  91.15098  3      822
siesta:     69.87076  -0.50834  92.14119  3      823
siesta:     67.90545  -4.11960  94.06871  2      824
siesta:     68.98259  -4.04213  95.86018  1      825
siesta:     66.05351  -4.77156  94.58839  1      826
siesta:     69.13566  -6.14350  92.38497  2      827
siesta:     71.57152  -5.44619  91.92765  3      828
siesta:     69.38888  -8.27133  93.81927  3      829
siesta:     67.98481  -6.88805  89.82061  2      830
siesta:     67.92434  -5.16462  88.66221  1      831
siesta:     69.34920  -8.14283  88.89464  1      832
siesta:     65.38455  -8.22031  89.62975  2      833
siesta:     65.46392  -9.90406  87.68900  3      834
siesta:     65.07652  -9.72076  91.68010  3      835
siesta:     62.89578  -6.66696  89.27448  2      836
siesta:     63.46648  -4.71487  89.05338  1      837
siesta:     62.01706  -7.27923  87.49057  1      838
siesta:     60.76984  -6.66129  91.30215  2      839
siesta:     60.16323  -9.10470  91.82183  3      840
siesta:     61.69202  -5.70698  93.49046  3      841
siesta:     58.20926  -5.33659  90.78248  2      842
siesta:     57.45904  -6.05280  89.01558  1      843
siesta:     56.93369  -5.90351  92.28859  1      844
siesta:     58.04107  -2.44342  90.62563  2      845
siesta:     57.14912  -1.56280  92.85362  3      846
siesta:     60.41646  -1.51556  90.48390  3      847
siesta:     56.46693  -1.25289  88.49591  2      848
siesta:     57.37967  -1.66485  86.70067  1      849
siesta:     54.64334  -2.21665  88.48268  1      850
siesta:     55.90946   1.57603  88.54504  2      851
siesta:     53.74950   1.93130  89.90754  3      852
siesta:     57.78407   2.78924  89.83384  3      853
siesta:     55.59388   3.07081  86.05249  2      854
siesta:     54.63011   4.81124  86.55516  1      855
siesta:     57.45526   3.58670  85.37786  1      856
siesta:     54.20115   1.94075  83.77726  2      857
siesta:     55.73183   0.15118  82.74925  3      858
siesta:     52.21315   0.56125  84.63142  3      859
siesta:     53.20715   3.65284  81.59652  2      860
siesta:     51.21349   3.13317  81.31684  1      861
siesta:     53.24494   5.56903  82.32028  1      862
siesta:     54.49594   3.70386  78.98113  2      863
siesta:     54.14634   1.36060  77.98147  3      864
siesta:     53.12400   5.23265  77.43723  3      865
siesta:     57.33431   4.36527  78.70146  2      866
siesta:     58.12800   4.58637  80.57417  1      867
siesta:     58.30563   2.73255  77.86620  1      868
siesta:     58.21682   6.68396  77.13298  2      869
siesta:     60.69425   7.09781  77.72447  3      870
siesta:     58.33398   5.92996  74.66500  3      871
siesta:     56.89779   9.27667  77.15944  2      872
siesta:     58.16012  10.57869  76.18434  1      873
siesta:     55.23483   9.12360  75.96513  1      874
siesta:     56.11733  10.60137  79.63876  2      875
siesta:     56.80141   9.08959  81.62675  3      876
siesta:     57.66691  12.63849  79.85608  3      877
siesta:     53.35077  11.43474  80.11875  2      878
siesta:     52.19615   9.73776  79.99403  1      879
siesta:     53.26195  12.07724  82.06517  1      880
siesta:     52.12434  13.50777  78.44445  2      881
siesta:     52.41535  12.82180  75.98781  3      882
siesta:     49.57321  13.34903  78.84507  3      883
siesta:     52.83298  16.32913  78.71468  2      884
siesta:     52.06953  16.98864  80.51370  1      885
siesta:     54.89657  16.43495  78.86964  1      886
siesta:     52.04875  18.31145  76.70023  2      887
siesta:     53.22416  20.49787  77.35975  3      888
siesta:     53.14101  17.65950  74.44012  3      889
siesta:     49.23494  18.91239  76.11064  2      890
siesta:     49.05731  18.95774  74.06218  1      891
siesta:     48.10300  17.34202  76.81362  1      892
siesta:     47.98772  21.36525  77.04983  2      893
siesta:     48.49606  21.59580  79.57262  3      894
siesta:     49.22172  23.37592  75.99915  3      895
siesta:     45.15880  21.94729  76.72291  2      896
siesta:     44.10434  20.48842  77.73203  1      897
siesta:     44.81298  23.70284  77.72825  1      898
siesta:     43.99851  22.26098  74.05651  2      899
siesta:     43.32010  24.71952  73.80139  3      900
siesta:     45.83155  21.96241  72.28772  3      901
siesta:     41.69115  20.69062  73.17967  2      902
siesta:     40.00174  21.62225  73.91478  1      903
siesta:     41.63635  20.88148  71.14066  1      904
siesta:     41.50029  17.83713  73.77872  2      905
siesta:     43.87757  16.89416  74.03761  3      906
siesta:     40.54787  17.67839  76.18434  3      907
siesta:     39.89213  16.02866  72.12899  2      908
siesta:     39.05310  14.66428  73.37998  1      909
siesta:     38.33500  17.13982  71.35987  1      910
siesta:     41.08455  14.48098  69.96336  2      911
siesta:     42.46972  16.07402  68.53283  3      912
siesta:     42.84389  12.89739  70.98948  3      913
siesta:     39.45561  12.89172  68.12654  2      914
siesta:     38.42193  14.23531  66.95302  1      915
siesta:     40.77464  11.87882  66.89822  1      916
siesta:     37.60556  10.92073  69.19424  2      917
siesta:     38.91704   9.40517  70.82129  3      918
siesta:     35.94827  12.18118  70.69090  3      919
siesta:     36.00875   9.22943  67.43301  2      920
siesta:     34.52342   8.40551  68.60842  1      921
siesta:     35.08278  10.42940  66.03651  1      922
siesta:     37.19549   7.05246  65.90234  2      923
siesta:     38.64680   8.07858  64.04095  3      924
siesta:     38.81499   5.78256  67.46136  3      925
siesta:     35.51931   5.03234  64.65889  2      926
siesta:     33.90926   4.82636  65.90045  1      927
siesta:     34.82389   5.78067  62.88255  1      928
siesta:     36.47362   2.36216  64.12032  2      929
siesta:     36.71928   1.13762  66.38799  3      930
siesta:     34.54799   1.16785  62.90901  3      931
siesta:     38.92270   1.94264  62.59720  2      932
siesta:     39.25719   3.65851  61.44825  1      933
siesta:     40.48173   1.85193  63.95214  1      934
siesta:     39.20427  -0.37795  60.87377  2      935
siesta:     37.90036   0.10016  58.73838  3      936
siesta:     41.66848  -0.42519  60.12544  3      937
siesta:     38.49941  -3.05758  61.78273  2      938
siesta:     36.80999  -2.93097  62.94491  1      939
siesta:     37.93438  -4.09126  60.08576  1      940
siesta:     40.43638  -4.65818  63.26617  2      941
siesta:     41.62879  -3.03112  64.89511  3      942
siesta:     39.07955  -6.18508  64.82897  3      943
siesta:     42.51130  -6.24744  62.01895  2      944
siesta:     44.24795  -5.15895  62.13989  1      945
siesta:     42.71161  -7.87638  63.25861  1      946
siesta:     42.25996  -7.19041  59.26372  2      947
siesta:     39.91670  -8.17496  58.89145  3      948
siesta:     42.24673  -5.09659  57.78218  3      949
siesta:     44.18370  -9.05179  58.10343  2      950
siesta:     43.60356  -9.33714  56.17402  1      951
siesta:     45.99217  -8.06535  58.09020  1      952
siesta:     44.62590 -11.67473  59.27506  2      953
siesta:     45.13424 -11.40828  61.78084  3      954
siesta:     42.37524 -12.96920  59.25239  3      955
siesta:     46.59311 -13.49265  58.16012  2      956
siesta:     45.97705 -15.39749  58.59665  1      957
siesta:     46.54586 -13.27155  56.11733  1      958
siesta:     49.42581 -13.31880  58.86688  2      959
siesta:     50.33477 -11.07569  57.95603  3      960
siesta:     49.63746 -13.11848  61.41045  3      961
siesta:     51.30797 -15.40694  58.12044  2      962
siesta:     53.06731 -14.45074  57.56486  1      963
siesta:     51.71993 -16.53511  59.80797  1      964
siesta:     50.67114 -17.33446  55.99828  2      965
siesta:     48.66236 -18.72530  56.76740  3      966
siesta:     49.77919 -15.99276  53.99517  3      967
siesta:     52.74228 -19.11648  54.95893  2      968
siesta:     51.91647 -20.04622  53.30920  1      969
siesta:     54.28618 -17.92217  54.29563  1      970
siesta:     53.94981 -21.09691  56.74094  2      971
siesta:     55.24050 -22.75798  55.29341  3      972
siesta:     55.82820 -19.92339  58.03351  3      973
siesta:     52.35488 -22.60113  58.69492  2      974
siesta:     51.57632 -21.22730  60.02717  1      975
siesta:     50.77885 -23.45907  57.69525  1      976
siesta:     53.60399 -24.71952  60.26150  2      977
siesta:     51.76907 -25.78343  61.69391  3      978
siesta:     54.33154 -26.61680  58.69681  3      979
siesta:     55.77718 -24.10158  62.11910  2      980
siesta:     56.35732 -22.14382  61.81864  1      981
siesta:     54.92680 -24.24898  63.99938  1      982
siesta:     58.19414 -25.71918  62.15312  2      983
siesta:     59.49238 -25.01431  64.25449  3      984
siesta:     57.52329 -28.15882  62.63122  3      985
siesta:     60.07820 -25.73808  59.90623  2      986
siesta:     58.97838 -25.47919  58.16201  1      987
siesta:     61.32542 -24.12425  60.10654  1      988
siesta:     61.79407 -28.07378  59.43947  2      989
siesta:     60.45236 -29.88414  58.21115  3      990
siesta:     63.52506 -27.36325  57.64990  3      991
siesta:     63.20758 -29.39092  61.63722  2      992
siesta:     61.90556 -29.60635  63.21703  1      993
siesta:     63.64978 -31.29955  60.96259  1      994
siesta:     65.69635 -28.30244  62.71815  2      995
siesta:     66.37477 -29.79343  64.71937  3      996
siesta:     67.55774 -28.75786  61.02684  3      997
siesta:     65.99682 -25.56045  63.62332  2      998
siesta:     64.15434 -24.89904  64.24127  1      999
siesta:     67.21570 -25.66438  65.26172  1     1000
siesta:     67.16656 -23.50631  61.90934  2     1001
siesta:     69.65155 -24.03922  61.52573  3     1002
siesta:     66.04029 -23.75198  59.60199  3     1003
siesta:     67.00216 -20.67361  62.64823  2     1004
siesta:     67.71080 -19.60403  61.04952  1     1005
siesta:     64.99905 -20.20118  62.83531  1     1006
siesta:     68.40055 -19.75898  65.04440  2     1007
siesta:     66.61287 -19.33758  66.84342  3     1008
siesta:     69.88777 -21.64871  66.00249  3     1009
siesta:     70.08997 -17.40438  64.91401  2     1010
siesta:     70.80051 -17.18140  66.81129  1     1011
siesta:     71.69624 -17.84847  63.67813  1     1012
siesta:     68.96747 -14.85514  63.98804  2     1013
siesta:     68.29284 -15.07813  61.52951  3     1014
siesta:     66.74137 -14.47342  65.23904  3     1015
siesta:     70.43012 -12.36826  64.26583  2     1016
siesta:     69.82730 -11.17207  62.70681  1     1017
siesta:     69.78761 -11.48954  66.01572  1     1018
siesta:     73.35353 -12.34559  64.26772  2     1019
siesta:     74.18501 -13.78745  66.23304  3     1020
siesta:     74.07729 -13.64383  62.16446  3     1021
siesta:     74.90310  -9.86815  64.32819  2     1022
siesta:     76.84763 -10.33870  63.76694  1     1023
siesta:     74.11320  -8.65117  62.88633  1     1024
siesta:     75.12609  -8.26567  66.76594  2     1025
siesta:     76.77393  -9.48265  68.31363  3     1026
siesta:     76.33363  -6.07736  66.11965  3     1027
siesta:     72.80929  -7.45308  68.37221  2     1028
siesta:     71.88710  -9.14817  69.06007  1     1029
siesta:     73.54250  -6.47231  70.02761  1     1030
siesta:     70.72681  -5.75800  67.21759  2     1031
siesta:     70.16367  -6.70664  64.89322  3     1032
siesta:     68.59709  -6.13216  68.61031  3     1033
siesta:     71.11609  -2.87238  66.84909  2     1034
siesta:     72.66000  -2.67018  65.47715  1     1035
siesta:     69.41534  -2.16374  65.95903  1     1036
siesta:     71.71702  -1.08281  69.06574  2     1037
siesta:     69.95580   0.79558  68.99582  3     1038
siesta:     71.28806  -2.33948  71.24081  3     1039
siesta:     74.32485   0.18897  69.18857  2     1040
siesta:     75.73647  -1.30202  69.24526  1     1041
siesta:     74.57429   1.14517  67.39144  1     1042
siesta:     74.99948   2.13728  71.24270  2     1043
siesta:     77.55439   2.25255  71.37687  3     1044
siesta:     74.30028   4.45409  70.38288  3     1045
siesta:     74.01493   1.87839  73.97903  2     1046
siesta:     71.97025   1.64784  73.86564  1     1047
siesta:     74.79539   0.13606  74.79539  1     1048
siesta:     74.44201   4.07425  75.82340  2     1049
siesta:     72.45591   5.65973  75.53616  3     1050
siesta:     74.14532   3.06325  78.18556  3     1051
siesta:     76.90999   5.61816  75.83663  2     1052
siesta:     78.48414   4.31803  76.28827  1     1053
siesta:     77.22747   6.31736  73.90155  1     1054
siesta:     77.19345   7.89906  77.64888  2     1055
siesta:     75.00704   8.17685  78.97169  3     1056
siesta:     78.94901   7.29813  79.42144  3     1057
siesta:     77.98903  10.50877  76.65677  2     1058
siesta:     79.18334  11.37049  78.10052  1     1059
siesta:     79.14365  10.22342  74.98058  1     1060
siesta:     76.01615  12.54779  76.01993  2     1061
siesta:     75.00137  13.38683  78.24603  3     1062
siesta:     77.33140  14.56979  75.09964  3     1063
siesta:     73.85242  12.04323  74.11131  2     1064
siesta:     74.24170  13.23565  72.45402  1     1065
siesta:     73.91289  10.04390  73.52738  1     1066
siesta:     71.08964  12.53456  74.86720  2     1067
siesta:     70.79295  15.00254  75.53616  3     1068
siesta:     69.69880  12.30023  72.74693  3     1069
siesta:     69.76116  10.93396  76.93078  2     1070
siesta:     69.40778   9.06880  76.12954  1     1071
[...]
siesta:   1082   -0.462493   -0.021555   -0.252878
siesta:   1083    0.454816   -0.495164    0.556920
siesta:   1084   -0.156953    0.680318    0.434992
siesta:   1085    0.440985   -0.089643    0.474160
siesta:   1086   -0.723887    1.639432   -0.322808
siesta:   1087    0.171899   -0.989978   -1.429885
siesta:   1088    0.214581    0.686307    0.554428
siesta:   1089   -0.389890   -0.505201   -0.525090
siesta:   1090    0.601481   -0.561136    0.724014
siesta:   1091    0.740072    0.497897   -0.690554
siesta:   1092   -0.139189    0.963520   -0.754746
siesta:   1093   -0.428047   -0.933738    0.547091
siesta:   1094    0.677526    0.510056    0.347717
siesta:   1095   -0.780233    0.590993    0.209224
siesta:   1096   -0.038317   -0.565843    0.829679
siesta:   1097   -0.640132    0.003079    0.186449
siesta:   1098    0.763284   -1.003942    0.476873
siesta:   1099    0.186207    1.025861   -1.761697
siesta:   1100   -1.384026   -0.466933    0.589245
siesta:   1101    0.107699   -0.596289    0.489266
siesta:   1102    1.024610    0.055102    0.095245
siesta:   1103   -0.118525   -0.662953   -0.076580
siesta:   1104    0.919874    1.091826    0.395897
siesta:   1105   -1.417291   -0.536849   -1.530693
siesta:   1106    0.199263    0.275569    0.137973
siesta:   1107    0.141878    0.174077    0.311622
siesta:   1108   -0.308715    0.731269   -0.360205
siesta:   1109   -0.301347    0.720621   -0.974763
siesta:   1110   -0.102169   -1.370970   -1.339782
siesta:   1111    0.650449   -0.599406    1.967916
siesta:   1112   -0.354987    1.057832   -0.347806
siesta:   1113   -0.237534   -1.133028    0.006101
siesta:   1114    0.044130    0.243885    0.500543
siesta:   1115   -0.054162   -0.115830   -0.078168
siesta:   1116    0.829518    1.830491    0.747527
siesta:   1117    0.119518   -0.579144   -1.076604
siesta:   1118    0.253586   -0.746471   -0.234272
siesta:   1119   -0.334301   -0.574855   -0.310633
siesta:   1120   -0.355785   -0.156666    0.593602
siesta:   1121    0.233181    0.234712   -0.773031
siesta:   1122   -1.051444   -0.676543   -0.524976
siesta:   1123    0.887154    1.104529    0.952505
siesta:   1124   -0.183615   -0.101995   -0.246659
siesta:   1125   -0.492905    0.594262    0.514642
siesta:   1126    0.942273    0.378148   -0.087656
siesta:   1127   -0.035118    0.183577    0.401480
siesta:   1128    1.253153    0.213459   -0.590454
siesta:   1129   -1.440923   -1.658407    0.123876
siesta:   1130    0.114855   -0.171697    0.523103
siesta:   1131    0.249593    0.550708   -0.119164
siesta:   1132    0.047197   -0.407642   -0.428923
siesta:   1133   -0.855892   -0.283328    0.646854
siesta:   1134    0.116007    1.535720    1.093503
siesta:   1135   -0.181683   -0.134509   -1.269924
siesta:   1136    0.322089   -0.459260   -0.977041
siesta:   1137    0.024660   -0.441000   -0.225371
siesta:   1138    0.118513   -0.080498    1.216757
siesta:   1139    0.490878    0.147262   -1.120740
siesta:   1140   -0.179053   -1.445665    0.542190
siesta:   1141   -0.056659    1.221082    0.394157
siesta:   1142    0.564774    0.077990   -0.882730
siesta:   1143   -0.742863   -0.062682    0.234157
siesta:   1144    0.225170    0.927046    0.009609
siesta:   1145    0.031321   -0.289327    0.228640
siesta:   1146    1.492720   -0.487273   -0.004803
siesta:   1147   -1.206868   -0.815617   -0.052535
siesta:   1148   -0.397802   -0.271992    0.415109
siesta:   1149   -0.818137    0.355762   -0.003899
siesta:   1150    1.049756    0.731424   -0.416740
siesta:   1151   -0.602645   -0.091367    0.427643
siesta:   1152   -0.989251    1.057462   -0.969691
siesta:   1153    1.358931   -1.155973    0.494026
siesta:   1154   -0.523120    0.306107    0.274715
siesta:   1155    0.476423   -0.263305   -0.867146
siesta:   1156    0.090531   -0.317812    0.469950
siesta:   1157    0.379366    0.502942   -0.342632
siesta:   1158   -0.232668   -1.095590    0.386140
siesta:   1159   -0.274133    1.465806    0.505030
siesta:   1160    0.525137    0.122917   -0.483867
siesta:   1161    0.437050   -1.037228   -0.444513
siesta:   1162   -0.229426   -0.085801    0.073276
siesta:   1163    1.728408   -0.090056    0.155333
siesta:   1164   -1.685803    0.456564    0.476546
siesta:   1165    1.018540    0.337621   -0.102724
siesta:   1166    0.583657    0.025084    0.387632
siesta:   1167   -0.498478   -0.536890   -0.151140
siesta:   1168   -0.592866    0.617697   -0.220514
siesta:   1169    0.456932    0.223923   -0.121953
siesta:   1170    1.106705   -0.057516    0.949121
siesta:   1171   -0.153426   -1.394028   -0.854380
siesta:   1172   -0.804041    0.305950   -0.172201
siesta:   1173   -0.752005    0.126925   -0.467588
siesta:   1174    0.143519    1.066158    0.275438
siesta:   1175   -0.449514   -0.287872    0.477095
siesta:   1176    1.088266    1.230699    0.813433
siesta:   1177    0.003083   -1.535038   -0.370065
siesta:   1178   -0.804782    0.826479   -0.174090
siesta:   1179    1.110202    0.132926   -0.059899
siesta:   1180   -0.230467   -0.687257   -0.560585
siesta:   1181    0.759071   -0.395799   -0.261205
siesta:   1182   -1.025980   -0.583499   -0.515071
siesta:   1183   -0.168147    1.226677    1.455563
siesta:   1184    0.037660   -0.386691    1.499783
siesta:   1185    0.570440   -0.323628   -0.954634
siesta:   1186   -0.712000    0.374754   -0.096833
siesta:   1187    0.191552    0.518095    0.546997
siesta:   1188    1.834424   -1.289145   -0.193773
siesta:   1189   -0.670329    1.243842   -0.975623
siesta:   1190   -0.176551   -0.831827   -0.366027
siesta:   1191   -0.663713    0.289967    0.289162
siesta:   1192   -0.074042   -0.758261    1.014268
siesta:   1193    0.390959   -0.979350   -0.421406
siesta:   1194    0.293446    1.040263   -1.731949
siesta:   1195   -0.170817    0.266781    2.036692
siesta:   1196   -0.378146   -1.021805   -0.034812
siesta:   1197    0.052950   -0.228827   -0.939114
siesta:   1198    0.415590    0.674860    0.066508
siesta:   1199   -0.348050    0.263223   -0.758110
siesta:   1200    1.320030    0.560857   -0.005496
siesta:   1201   -1.263698   -0.274195    0.978030
siesta:   1202    0.353849    0.266890   -0.371233
siesta:   1203    0.375159   -0.178291    0.834453
siesta:   1204   -0.956054   -0.677356   -0.042760
siesta:   1205   -0.467388   -0.225731    0.250651
siesta:   1206   -1.490039    0.048539   -0.953108
siesta:   1207    1.502406    0.722031    0.177003
siesta:   1208    0.160896   -0.348085   -0.206432
siesta:   1209   -0.065278    0.209349   -0.517157
siesta:   1210    0.770127    0.120642    0.493108
siesta:   1211   -0.207379    0.751710   -0.541477
siesta:   1212    0.240084   -0.313304    0.873586
siesta:   1213   -1.124308    0.129126   -0.152410
siesta:   1214   -0.873625   -0.157678   -0.087962
siesta:   1215    1.089598   -0.318000    0.064970
siesta:   1216   -0.169006   -0.295439    0.450698
siesta:   1217   -0.748677    0.441970    0.475709
siesta:   1218   -0.932114    0.842393    0.004526
siesta:   1219    1.058708   -0.282703   -0.537238
siesta:   1220    0.048098   -0.618161    0.791159
siesta:   1221    0.211085   -0.184289   -0.515057
siesta:   1222    0.432540   -0.320678   -0.118503
siesta:   1223    0.160953    0.322324   -0.334603
siesta:   1224    0.235871    0.065015    0.778269
siesta:   1225   -0.620053    0.345536   -0.854150
siesta:   1226   -0.272765   -0.203407   -0.038285
siesta:   1227    0.289881   -0.478797    0.163685
siesta:   1228   -0.385140    0.249954    0.453627
siesta:   1229    0.176439   -0.250475   -0.122692
siesta:   1230    0.401631    0.799619   -1.602679
siesta:   1231    0.584654   -1.158354    0.422966
siesta:   1232    0.388780    0.794934   -0.592309
siesta:   1233   -0.436263   -0.340099    0.583766
siesta:   1234   -0.476371    0.765638   -0.035456
siesta:   1235    0.723186   -0.123154   -0.430270
siesta:   1236    1.033401   -1.045358    0.106632
siesta:   1237   -1.523208    0.171142    0.125809
siesta:   1238    0.299990   -0.153148    0.947450
siesta:   1239   -0.788605    0.895363   -0.138883
siesta:   1240    0.351870   -0.095493   -0.075574
siesta:   1241    0.231505   -0.841508    0.466498
siesta:   1242   -1.383824    0.497105   -0.362350
siesta:   1243    1.278684   -0.322722   -0.522284
siesta:   1244    0.075432    0.313650   -0.600384
siesta:   1245    0.571565   -0.159461    0.368512
siesta:   1246   -1.024157    0.031501    1.034279
siesta:   1247    1.050225    1.265334    0.756737
siesta:   1248    0.342944   -0.457582   -0.223853
siesta:   1249   -0.924004   -0.642479    0.423447
siesta:   1250   -0.208540    0.485010   -0.884596
siesta:   1251   -0.007379    0.142435    0.209177
siesta:   1252   -0.450748    0.409735    1.336230
siesta:   1253    0.720424    0.058073    0.909396
siesta:   1254   -0.444783   -0.473452    0.525033
siesta:   1255   -0.466507    0.396512    1.048535
siesta:   1256    0.329809   -0.771352    0.303809
siesta:   1257    0.403941    0.589526    0.701511
siesta:   1258   -0.079018   -0.179025   -1.132469
siesta:   1259    0.107708    0.597722   -0.644402
siesta:   1260   -0.100025   -0.034256   -0.696949
siesta:   1261    0.295733   -0.032966   -1.109505
siesta:   1262   -0.403471   -0.134871   -0.839150
siesta:   1263    0.164299    0.010811   -1.141070
siesta:   1264   -0.243718   -0.354899    0.647005
siesta:   1265    0.178292   -0.330946    0.505809
siesta:   1266    0.172731    0.412192    0.626035
siesta:   1267    0.238410   -0.942540    0.976173
siesta:   1268    0.724512    0.598564    0.518873
siesta:   1269   -0.512770    0.365300    1.073119
siesta:   1270   -0.671916   -0.107693   -0.384790
siesta:   1271    0.753120    0.327012   -0.551868
siesta:   1272    0.100893   -0.443744   -0.003915
siesta:   1273   -0.322838    0.406274   -0.159769
siesta:   1274   -0.065196   -0.260297   -0.116740
siesta:   1275    0.442705    0.338645    0.166211
siesta:   1276   -0.074238   -0.130463    0.010429
siesta:   1277   -0.160543   -0.893307   -0.397678
siesta:   1278   -0.205357    0.866699   -0.415129
siesta:   1279   -0.416446   -0.447487   -0.918228
siesta:   1280    0.589415   -0.202044   -0.756441
siesta:   1281   -0.879023   -0.017835   -0.896963
siesta:   1282    0.806383    0.061698   -0.657523
siesta: ----------------------------------------
siesta:    Tot   -0.035555    0.083778    0.161388

siesta: Stress tensor (static) (eV/Ang**3):
siesta:     0.001656   -0.001147    0.002117
siesta:    -0.001147    0.001389    0.003855
siesta:     0.002117    0.003855   -0.005216

siesta: Cell volume =      13041.289483 Ang**3

siesta: Pressure (static):
siesta:                Solid            Molecule  Units
siesta:           0.00000788         -0.00026233  Ry/Bohr**3
siesta:           0.00072392         -0.02408645  eV/Ang**3
siesta:           1.15985879        -38.59115793  kBar
(Free)E+ p_basis*V_orbitals  =     -374625.440655
(Free)Eharris+ p_basis*V_orbitals  =     -374625.389975

Optical: Performing optical calculation: 

Optical: Polarization type       = polarized   
Optical: Minimum of energy range =   0.0001 Ry 
Optical: Maximum of energy range =   7.3498 Ry 
Optical: Gaussian broadening     =   0.0037 Ry 
Optical: Scissor operator        =   0.0000 Ry 
Optical: Number of bands         =    13386
Optical: BZ mesh dimensions      =    1   1   1

Optical: electric field direction
Optical:      0.00000     0.00000     1.00000

Optical: Checking f-sum rule  0.879794
Optical: For insulators and closed shell systems
Optical: this number should be close to 1 if an enough
Optical: number of unoccupied bands have been included

* Maximum dynamic memory allocated : Node    0 =   303 MB
* Maximum dynamic memory allocated : Node    1 =   306 MB
* Maximum dynamic memory allocated : Node    2 =   305 MB
* Maximum dynamic memory allocated : Node    3 =   307 MB
* Maximum dynamic memory allocated : Node    4 =   307 MB
* Maximum dynamic memory allocated : Node    5 =   308 MB
* Maximum dynamic memory allocated : Node    6 =   303 MB
* Maximum dynamic memory allocated : Node    7 =   309 MB
* Maximum dynamic memory allocated : Node    8 =   303 MB
* Maximum dynamic memory allocated : Node    9 =   311 MB
* Maximum dynamic memory allocated : Node   10 =   306 MB
* Maximum dynamic memory allocated : Node   11 =   308 MB
* Maximum dynamic memory allocated : Node   12 =   307 MB
* Maximum dynamic memory allocated : Node   13 =   310 MB
* Maximum dynamic memory allocated : Node   14 =   306 MB
* Maximum dynamic memory allocated : Node   15 =   307 MB
* Maximum dynamic memory allocated : Node   16 =   307 MB
* Maximum dynamic memory allocated : Node   17 =   305 MB
* Maximum dynamic memory allocated : Node   18 =   308 MB
* Maximum dynamic memory allocated : Node   19 =   305 MB
* Maximum dynamic memory allocated : Node   20 =   308 MB
* Maximum dynamic memory allocated : Node   21 =   308 MB
* Maximum dynamic memory allocated : Node   22 =   304 MB
* Maximum dynamic memory allocated : Node   23 =   304 MB
* Maximum dynamic memory allocated : Node   24 =   306 MB
* Maximum dynamic memory allocated : Node   25 =   308 MB
* Maximum dynamic memory allocated : Node   26 =   306 MB
* Maximum dynamic memory allocated : Node   27 =   310 MB
* Maximum dynamic memory allocated : Node   28 =   306 MB
* Maximum dynamic memory allocated : Node   29 =   314 MB
* Maximum dynamic memory allocated : Node   30 =   310 MB
* Maximum dynamic memory allocated : Node   31 =   310 MB
* Maximum dynamic memory allocated : Node   32 =   305 MB
* Maximum dynamic memory allocated : Node   33 =   307 MB
* Maximum dynamic memory allocated : Node   34 =   308 MB
* Maximum dynamic memory allocated : Node   35 =   313 MB
* Maximum dynamic memory allocated : Node   36 =   305 MB
* Maximum dynamic memory allocated : Node   37 =   304 MB
* Maximum dynamic memory allocated : Node   38 =   307 MB
* Maximum dynamic memory allocated : Node   39 =   307 MB
* Maximum dynamic memory allocated : Node   40 =   313 MB
* Maximum dynamic memory allocated : Node   41 =   308 MB
* Maximum dynamic memory allocated : Node   42 =   310 MB
* Maximum dynamic memory allocated : Node   43 =   314 MB
* Maximum dynamic memory allocated : Node   44 =   308 MB
* Maximum dynamic memory allocated : Node   45 =   309 MB
* Maximum dynamic memory allocated : Node   46 =   297 MB
* Maximum dynamic memory allocated : Node   47 =   295 MB
* Maximum dynamic memory allocated : Node   48 =   297 MB
* Maximum dynamic memory allocated : Node   49 =   291 MB
* Maximum dynamic memory allocated : Node   50 =   295 MB
* Maximum dynamic memory allocated : Node   51 =   298 MB
* Maximum dynamic memory allocated : Node   52 =   296 MB
* Maximum dynamic memory allocated : Node   53 =   293 MB
* Maximum dynamic memory allocated : Node   54 =   292 MB
* Maximum dynamic memory allocated : Node   55 =   291 MB
* Maximum dynamic memory allocated : Node   56 =   296 MB
* Maximum dynamic memory allocated : Node   57 =   294 MB
* Maximum dynamic memory allocated : Node   58 =   297 MB
* Maximum dynamic memory allocated : Node   59 =   293 MB
* Maximum dynamic memory allocated : Node   60 =   297 MB
* Maximum dynamic memory allocated : Node   61 =   294 MB
* Maximum dynamic memory allocated : Node   62 =   295 MB
* Maximum dynamic memory allocated : Node   63 =   291 MB

* Maximum memory occured during rdiag                         

timer: CPU execution times:
timer:  Routine       Calls   Time/call    Tot.time        %
timer:  siesta            117284997.38417284997.384   100.00
timer:  Setup             1     221.787     221.787     0.00
timer:  bands             1       0.022       0.022     0.00
timer:  writewave         1       0.044       0.044     0.00
timer:  KSV_init          1       0.009       0.009     0.00
timer:  IterMD            1  197731.885  197731.885     1.14
timer:  hsparse           1      35.960      35.960     0.00
timer:  overlap           1     107.431     107.431     0.00
timer:  IterSCF          22    8865.408  195038.979     1.13
timer:  kinefsm           2      55.128     110.255     0.00
timer:  nlefsm            2     246.621     493.242     0.00
timer:  DHSCF            23    1227.838   28240.269     0.16
timer:  DHSCF1            1      47.231      47.231     0.00
timer:  DHSCF2            1    1502.756    1502.756     0.01
timer:  REORD           140       0.089      12.506     0.00
timer:  POISON           24      18.645     447.479     0.00
timer:  DHSCF3           23    1137.380   26159.732     0.15
timer:  rhoofd           23     358.436    8244.031     0.05
timer:  cellXC           23     101.010    2323.220     0.01
timer:  vmat             23     460.355   10588.161     0.06
timer:  MolMec            2       0.119       0.238     0.00
timer:  diagon           22    6860.209  150924.596     0.87
timer:  r-eigvec         22    6716.791  147769.412     0.85
timer:  r-buildHS        22       0.826      18.177     0.00
timer:  rdiag            23    6734.110  154884.537     0.90
timer:  rdiag1           23     283.294    6515.771     0.04
timer:  rdiag2           23    1505.778   34632.897     0.20
timer:  rdiag3           23    4199.457   96587.503     0.56
timer:  rdiag4           23     708.538   16296.382     0.09
timer:  r-buildD         22     142.857    3142.848     0.02
timer:  DHSCF4            1     526.515     526.515     0.00
timer:  dfscf             1     468.229     468.229     0.00
timer:  overfsm           1       5.008       5.008     0.00
timer:  optical           117086982.42117086982.421    98.85
timer:  phirphiopt        1    1129.420    1129.420     0.01
timer:  transrate         117078471.92217078471.922    98.81
  

elaps: ELAPSED times:
elaps:  Routine       Calls   Time/call    Tot.time        %
elaps:  siesta            1   55355.571   55355.571   100.00
elaps:  Setup             1       3.479       3.479     0.01
elaps:  bands             1       0.000       0.000     0.00
elaps:  writewave         1       0.001       0.001     0.00
elaps:  KSV_init          1       0.000       0.000     0.00
elaps:  IterMD            1    3102.830    3102.830     5.61
elaps:  hsparse           1       0.540       0.540     0.00
elaps:  overlap           1       1.319       1.319     0.00
elaps:  IterSCF          22     139.066    3059.452     5.53
elaps:  kinefsm           2       0.685       1.370     0.00
elaps:  nlefsm            2       3.635       7.270     0.01
elaps:  DHSCF            23      19.124     439.859     0.79
elaps:  DHSCF1            1       0.689       0.689     0.00
elaps:  DHSCF2            1      23.561      23.561     0.04
elaps:  REORD           140       0.001       0.181     0.00
elaps:  POISON           24       0.292       7.012     0.01
elaps:  DHSCF3           23      17.769     408.697     0.74
elaps:  rhoofd           23       4.329      99.577     0.18
elaps:  cellXC           23       1.581      36.362     0.07
elaps:  vmat             23       7.189     165.347     0.30
elaps:  MolMec            2       0.002       0.003     0.00
elaps:  diagon           22     107.752    2370.553     4.28
elaps:  r-eigvec         22     105.487    2320.721     4.19
elaps:  r-buildHS        22       0.009       0.201     0.00
elaps:  rdiag            23     105.780    2432.930     4.40
elaps:  rdiag1           23       4.476     102.939     0.19
elaps:  rdiag2           23      23.739     545.993     0.99
elaps:  rdiag3           23      65.906    1515.845     2.74
elaps:  rdiag4           23      11.069     254.579     0.46
elaps:  r-buildD         22       2.257      49.649     0.09
elaps:  DHSCF4            1       6.855       6.855     0.01
elaps:  dfscf             1       6.030       6.030     0.01
elaps:  overfsm           1       0.078       0.078     0.00
elaps:  optical           1   52248.527   52248.527    94.39
elaps:  phirphiopt        1      17.175      17.175     0.03
elaps:  transrate         1   52114.636   52114.636    94.15
  
>> End of run:  27-MAR-2012   8:02:05
