Siesta Version:                                        siesta-3.2-pl-3
Architecture  : x86_64-unknown-linux-gnu--Intel
Compiler flags: mpif90 -O3 -xSSSE3 -axSSE4.2,SSE4.1 -ip
PARALLEL version
NetCDF support

* Running on   64 nodes in parallel
>> Start of run:  30-OCT-2014   1:23:45

                           ***********************       
                           *  WELCOME TO SIESTA  *       
                           ***********************       

reinit: Reading from standard input
************************** Dump of input data file ****************************
SystemName      optical
SystemLabel     optical
NumberOfAtoms   1282
NumberOfSpecies 4
MD.TypeOfRun    CG
MD.NumCGsteps   0
MD.ConstantVolume  .true.
SolutionMethod  diagon
XC.functional   GGA
XC.authors      PBE
PAO.BasisSize   DZP
DM.NumberPulay  7
DM.MixingWeight 0.1
DirectPhi       .true.
SaveMemory      .true.
MeshCutoff      500 Ry
MaxSCFiterations 200
UseSaveData     .true.
WriteMullikenPop 1
OpticalCalculation      .true.
%block Optical.Mesh
 1 1 1
%endblock Optical.Mesh
Optical.PolarizationType  polarized
%block Optical.Vector
 0.0 1.0 0.0
%endblock Optical.Vector
Optical.Broaden         0.05 eV
Optical.EnergyMinimum   0.001 eV
Optical.EnergyMaximum   100.0 eV
%block ChemicalSpeciesLabel
 1   1   H
 2   6   C
 3   9   F
 4  47   Ag
%endblock ChemicalSpeciesLabel
LatticeConstant 1.0 Ang
%block LatticeParameters
  22.534   24.472   23.649   90.0 90.0 90.0
%endblock LatticeParameters
AtomicCoordinatesFormat Ang
%block AtomicCoordinatesAndAtomicSpecies < struct.coor
%endblock AtomicCoordinatesAndAtomicSpecies
************************** End of input data file *****************************

reinit: -----------------------------------------------------------------------
reinit: System Name: optical
reinit: -----------------------------------------------------------------------
reinit: System Label: optical                                                     
reinit: -----------------------------------------------------------------------

initatom: Reading input for the pseudopotentials and atomic orbitals ----------
 Species number:            1  Label: H Atomic number:           1
 Species number:            2  Label: C Atomic number:           6
 Species number:            3  Label: F Atomic number:           9
 Species number:            4  Label: Ag Atomic number:          47
Ground state valence configuration:   1s01
Reading pseudopotential information in formatted form from H.psf

Valence configuration for pseudopotential generation:
1s( 1.00) rc: 1.33
2p( 0.00) rc: 1.33
3d( 0.00) rc: 0.37
4f( 0.00) rc: 1.33
Ground state valence configuration:   2s02  2p02
Reading pseudopotential information in formatted form from C.psf

Valence configuration for pseudopotential generation:
2s( 2.00) rc: 1.56
2p( 2.00) rc: 1.56
3d( 0.00) rc: 1.56
4f( 0.00) rc: 1.56
Ground state valence configuration:   2s02  2p05
Reading pseudopotential information in formatted form from F.psf

Valence configuration for pseudopotential generation:
2s( 2.00) rc: 1.41
2p( 5.00) rc: 1.41
3d( 0.00) rc: 1.41
4f( 0.00) rc: 1.41
Ground state valence configuration:   5s01  4d10
Reading pseudopotential information in formatted form from Ag.psf

Valence configuration for pseudopotential generation:
5s( 1.00) rc: 2.52
5p( 0.00) rc: 2.72
4d(10.00) rc: 2.52
4f( 0.00) rc: 2.52
For H, standard SIESTA heuristics set lmxkb to 2
 (one more than the basis l, including polarization orbitals).
Use PS.lmax or PS.KBprojectors blocks to override.
For C, standard SIESTA heuristics set lmxkb to 3
 (one more than the basis l, including polarization orbitals).
Use PS.lmax or PS.KBprojectors blocks to override.
For F, standard SIESTA heuristics set lmxkb to 3
 (one more than the basis l, including polarization orbitals).
Use PS.lmax or PS.KBprojectors blocks to override.
For Ag, standard SIESTA heuristics set lmxkb to 3
 (one more than the basis l, including polarization orbitals).
Use PS.lmax or PS.KBprojectors blocks to override.

<basis_specs>
===============================================================================
H                    Z=   1    Mass=  1.0100        Charge= 0.17977+309
Lmxo=0 Lmxkb= 2    BasisType=split      Semic=F
L=0  Nsemic=0  Cnfigmx=1
          n=1  nzeta=2  polorb=1
            splnorm:   0.15000    
               vcte:    0.0000    
               rinn:    0.0000    
                rcs:    0.0000      0.0000    
            lambdas:   1.00000     1.00000    
-------------------------------------------------------------------------------
L=0  Nkbl=1  erefs: 0.17977+309
L=1  Nkbl=1  erefs: 0.17977+309
L=2  Nkbl=1  erefs: 0.17977+309
===============================================================================
</basis_specs>

atom: Called for H                     (Z =   1)

read_vps: Pseudopotential generation method:
read_vps: ATM 3.2.2 Troullier-Martins                       
Total valence charge:    1.00000

xc_check: Exchange-correlation functional:
xc_check: GGA Perdew, Burke & Ernzerhof 1996
V l=0 = -2*Zval/r beyond r=  1.2656
V l=1 = -2*Zval/r beyond r=  1.2498
V l=2 = -2*Zval/r beyond r=  0.3563
All V_l potentials equal beyond r=  1.2656
This should be close to max(r_c) in ps generation
All pots = -2*Zval/r beyond r=  1.2656

VLOCAL1: 99.0% of the norm of Vloc inside     27.100 Ry
VLOCAL1: 99.9% of the norm of Vloc inside     61.762 Ry
atom: Maximum radius for 4*pi*r*r*local-pseudopot. charge    1.48935
atom: Maximum radius for r*vlocal+2*Zval:    1.24984
GHOST: No ghost state for L =  0
GHOST: No ghost state for L =  1
GHOST: No ghost state for L =  2

KBgen: Kleinman-Bylander projectors: 
   l= 0   rc=  1.398961   el= -0.477209   Ekb= -2.001853   kbcos= -0.352188
   l= 1   rc=  1.470814   el=  0.001006   Ekb= -0.423408   kbcos= -0.024395
   l= 2   rc=  1.489346   el=  0.001895   Ekb= -0.481957   kbcos= -0.001574

KBgen: Total number of  Kleinman-Bylander projectors:    9
atom: -------------------------------------------------------------------------

atom: SANKEY-TYPE ORBITALS:
atom: Selected multiple-zeta basis: split     

SPLIT: Orbitals with angular momentum L= 0

SPLIT: Basis orbitals for state 1s

SPLIT: PAO cut-off radius determined from an
SPLIT: energy shift=  0.020000 Ry

   izeta = 1
                 lambda =    1.000000
                     rc =    4.708991
                 energy =   -0.457764
                kinetic =    0.979534
    potential(screened) =   -1.437298
       potential(ionic) =   -1.965615

   izeta = 2
                 rmatch =    3.759707
              splitnorm =    0.150000
                 energy =   -0.339003
                kinetic =    1.582546
    potential(screened) =   -1.921548
       potential(ionic) =   -2.471878

POLgen: Perturbative polarization orbital with L=  1

POLgen: Polarization orbital for state 1s

   izeta = 1
                     rc =    4.708991
                 energy =    0.764951
                kinetic =    1.476882
    potential(screened) =   -0.711931
       potential(ionic) =   -1.204335
atom: Total number of Sankey-type orbitals:  5

atm_pop: Valence configuration (for local Pseudopot. screening):
 1s( 1.00)                                                            
Vna: chval, zval:    1.00000   1.00000

Vna:  Cut-off radius for the neutral-atom potential:   4.708991

atom: _________________________________________________________________________

<basis_specs>
===============================================================================
C                    Z=   6    Mass=  12.010        Charge= 0.17977+309
Lmxo=1 Lmxkb= 3    BasisType=split      Semic=F
L=0  Nsemic=0  Cnfigmx=2
          n=1  nzeta=2  polorb=0
            splnorm:   0.15000    
               vcte:    0.0000    
               rinn:    0.0000    
                rcs:    0.0000      0.0000    
            lambdas:   1.00000     1.00000    
L=1  Nsemic=0  Cnfigmx=2
          n=1  nzeta=2  polorb=1
            splnorm:   0.15000    
               vcte:    0.0000    
               rinn:    0.0000    
                rcs:    0.0000      0.0000    
            lambdas:   1.00000     1.00000    
-------------------------------------------------------------------------------
L=0  Nkbl=1  erefs: 0.17977+309
L=1  Nkbl=1  erefs: 0.17977+309
L=2  Nkbl=1  erefs: 0.17977+309
L=3  Nkbl=1  erefs: 0.17977+309
===============================================================================
</basis_specs>

atom: Called for C                     (Z =   6)

read_vps: Pseudopotential generation method:
read_vps: ATM 3.2.2 Troullier-Martins                       
Total valence charge:    4.00000

xc_check: Exchange-correlation functional:
xc_check: GGA Perdew, Burke & Ernzerhof 1996
V l=0 = -2*Zval/r beyond r=  1.5227
V l=1 = -2*Zval/r beyond r=  1.5227
V l=2 = -2*Zval/r beyond r=  1.5227
V l=3 = -2*Zval/r beyond r=  1.5227
All V_l potentials equal beyond r=  1.4851
This should be close to max(r_c) in ps generation
All pots = -2*Zval/r beyond r=  1.5227

VLOCAL1: 99.0% of the norm of Vloc inside     19.682 Ry
VLOCAL1: 99.9% of the norm of Vloc inside     44.856 Ry
atom: Maximum radius for 4*pi*r*r*local-pseudopot. charge    1.79142
atom: Maximum radius for r*vlocal+2*Zval:    1.54183
GHOST: No ghost state for L =  0
GHOST: No ghost state for L =  1
GHOST: No ghost state for L =  2
GHOST: No ghost state for L =  3

KBgen: Kleinman-Bylander projectors: 
   l= 0   rc=  1.661951   el= -1.010689   Ekb=  5.289847   kbcos=  0.316429
   l= 1   rc=  1.661951   el= -0.388490   Ekb= -4.102504   kbcos= -0.351025
   l= 2   rc=  1.747182   el=  0.001971   Ekb= -1.006005   kbcos= -0.008530
   l= 3   rc=  1.791422   el=  0.003065   Ekb= -0.421399   kbcos= -0.001072

KBgen: Total number of  Kleinman-Bylander projectors:   16
atom: -------------------------------------------------------------------------

atom: SANKEY-TYPE ORBITALS:
atom: Selected multiple-zeta basis: split     

SPLIT: Orbitals with angular momentum L= 0

SPLIT: Basis orbitals for state 2s

SPLIT: PAO cut-off radius determined from an
SPLIT: energy shift=  0.020000 Ry

   izeta = 1
                 lambda =    1.000000
                     rc =    4.088342
                 energy =   -0.990050
                kinetic =    0.909804
    potential(screened) =   -1.899854
       potential(ionic) =   -5.513925

   izeta = 2
                 rmatch =    3.347176
              splitnorm =    0.150000
                 energy =   -0.836186
                kinetic =    1.375045
    potential(screened) =   -2.211230
       potential(ionic) =   -6.057915

SPLIT: Orbitals with angular momentum L= 1

SPLIT: Basis orbitals for state 2p

SPLIT: PAO cut-off radius determined from an
SPLIT: energy shift=  0.020000 Ry

   izeta = 1
                 lambda =    1.000000
                     rc =    4.870301
                 energy =   -0.368677
                kinetic =    2.532104
    potential(screened) =   -2.900781
       potential(ionic) =   -6.401132

   izeta = 2
                 rmatch =    3.475094
              splitnorm =    0.150000
                 energy =   -0.205777
                kinetic =    3.787472
    potential(screened) =   -3.993249
       potential(ionic) =   -7.860448

POLgen: Perturbative polarization orbital with L=  2

POLgen: Polarization orbital for state 2p

   izeta = 1
                     rc =    4.870301
                 energy =    1.296521
                kinetic =    2.641128
    potential(screened) =   -1.344607
       potential(ionic) =   -4.300412
atom: Total number of Sankey-type orbitals: 13

atm_pop: Valence configuration (for local Pseudopot. screening):
 2s( 2.00)                                                            
 2p( 2.00)                                                            
Vna: chval, zval:    4.00000   4.00000

Vna:  Cut-off radius for the neutral-atom potential:   4.870301

atom: _________________________________________________________________________

<basis_specs>
===============================================================================
F                    Z=   9    Mass=  19.000        Charge= 0.17977+309
Lmxo=1 Lmxkb= 3    BasisType=split      Semic=F
L=0  Nsemic=0  Cnfigmx=2
          n=1  nzeta=2  polorb=0
            splnorm:   0.15000    
               vcte:    0.0000    
               rinn:    0.0000    
                rcs:    0.0000      0.0000    
            lambdas:   1.00000     1.00000    
L=1  Nsemic=0  Cnfigmx=2
          n=1  nzeta=2  polorb=1
            splnorm:   0.15000    
               vcte:    0.0000    
               rinn:    0.0000    
                rcs:    0.0000      0.0000    
            lambdas:   1.00000     1.00000    
-------------------------------------------------------------------------------
L=0  Nkbl=1  erefs: 0.17977+309
L=1  Nkbl=1  erefs: 0.17977+309
L=2  Nkbl=1  erefs: 0.17977+309
L=3  Nkbl=1  erefs: 0.17977+309
===============================================================================
</basis_specs>

atom: Called for F                     (Z =   9)

read_vps: Pseudopotential generation method:
read_vps: ATM 3.2.2 Troullier-Martins                       
Total valence charge:    7.00000

xc_check: Exchange-correlation functional:
xc_check: GGA Perdew, Burke & Ernzerhof 1996
V l=0 = -2*Zval/r beyond r=  1.3199
V l=1 = -2*Zval/r beyond r=  1.3199
V l=2 = -2*Zval/r beyond r=  1.3199
V l=3 = -2*Zval/r beyond r=  1.3199
All V_l potentials equal beyond r=  1.3199
This should be close to max(r_c) in ps generation
All pots = -2*Zval/r beyond r=  1.3199

VLOCAL1: 99.0% of the norm of Vloc inside     24.916 Ry
VLOCAL1: 99.9% of the norm of Vloc inside     56.784 Ry
atom: Maximum radius for 4*pi*r*r*local-pseudopot. charge    1.61221
atom: Maximum radius for r*vlocal+2*Zval:    1.38760
GHOST: No ghost state for L =  0
GHOST: No ghost state for L =  1
GHOST: No ghost state for L =  2
GHOST: No ghost state for L =  3

KBgen: Kleinman-Bylander projectors: 
   l= 0   rc=  1.495695   el= -2.197581   Ekb=  5.601452   kbcos=  0.238748
   l= 1   rc=  1.458760   el= -0.816694   Ekb= -9.171639   kbcos= -0.518972
   l= 2   rc=  1.552860   el=  0.001997   Ekb= -1.845583   kbcos= -0.004774
   l= 3   rc=  1.592177   el=  0.003102   Ekb= -0.701684   kbcos= -0.000616

KBgen: Total number of  Kleinman-Bylander projectors:   16
atom: -------------------------------------------------------------------------

atom: SANKEY-TYPE ORBITALS:
atom: Selected multiple-zeta basis: split     

SPLIT: Orbitals with angular momentum L= 0

SPLIT: Basis orbitals for state 2s

SPLIT: PAO cut-off radius determined from an
SPLIT: energy shift=  0.020000 Ry

   izeta = 1
                 lambda =    1.000000
                     rc =    3.012240
                 energy =   -2.180114
                kinetic =    2.050927
    potential(screened) =   -4.231041
       potential(ionic) =  -15.028689

   izeta = 2
                 rmatch =    2.203728
              splitnorm =    0.150000
                 energy =   -1.860487
                kinetic =    3.102500
    potential(screened) =   -4.962987
       potential(ionic) =  -16.601125

SPLIT: Orbitals with angular momentum L= 1

SPLIT: Basis orbitals for state 2p

SPLIT: PAO cut-off radius determined from an
SPLIT: energy shift=  0.020000 Ry

   izeta = 1
                 lambda =    1.000000
                     rc =    3.588372
                 energy =   -0.798309
                kinetic =    6.054328
    potential(screened) =   -6.852638
       potential(ionic) =  -17.288549

   izeta = 2
                 rmatch =    2.259523
              splitnorm =    0.150000
                 energy =   -0.439465
                kinetic =    8.943362
    potential(screened) =   -9.382827
       potential(ionic) =  -20.998650

POLgen: Perturbative polarization orbital with L=  2

POLgen: Polarization orbital for state 2p

   izeta = 1
                     rc =    3.588372
                 energy =    3.121679
                kinetic =    6.160101
    potential(screened) =   -3.038422
       potential(ionic) =  -11.529161
atom: Total number of Sankey-type orbitals: 13

atm_pop: Valence configuration (for local Pseudopot. screening):
 2s( 2.00)                                                            
 2p( 5.00)                                                            
Vna: chval, zval:    7.00000   7.00000

Vna:  Cut-off radius for the neutral-atom potential:   3.588372

atom: _________________________________________________________________________

<basis_specs>
===============================================================================
Ag                   Z=  47    Mass=  107.87        Charge= 0.17977+309
Lmxo=2 Lmxkb= 3    BasisType=split      Semic=F
L=0  Nsemic=0  Cnfigmx=5
          n=1  nzeta=2  polorb=1
            splnorm:   0.15000    
               vcte:    0.0000    
               rinn:    0.0000    
                rcs:    0.0000      0.0000    
            lambdas:   1.00000     1.00000    
L=1  Nsemic=0  Cnfigmx=5
L=2  Nsemic=0  Cnfigmx=4
          n=1  nzeta=2  polorb=0
            splnorm:   0.15000    
               vcte:    0.0000    
               rinn:    0.0000    
                rcs:    0.0000      0.0000    
            lambdas:   1.00000     1.00000    
-------------------------------------------------------------------------------
L=0  Nkbl=1  erefs: 0.17977+309
L=1  Nkbl=1  erefs: 0.17977+309
L=2  Nkbl=1  erefs: 0.17977+309
L=3  Nkbl=1  erefs: 0.17977+309
===============================================================================
</basis_specs>

atom: Called for Ag                    (Z =  47)

read_vps: Pseudopotential generation method:
read_vps: ATM 3.2.2 Troullier-Martins                       
Total valence charge:   11.00000

xc_check: Exchange-correlation functional:
xc_check: GGA Perdew, Burke & Ernzerhof 1996
V l=0 = -2*Zval/r beyond r=  2.4592
V l=1 = -2*Zval/r beyond r=  2.6507
V l=2 = -2*Zval/r beyond r=  2.4592
V l=3 = -2*Zval/r beyond r=  2.4592
All V_l potentials equal beyond r=  2.6507
This should be close to max(r_c) in ps generation
All pots = -2*Zval/r beyond r=  2.6507

VLOCAL1: 99.0% of the norm of Vloc inside      6.178 Ry
VLOCAL1: 99.9% of the norm of Vloc inside     14.079 Ry
atom: Maximum radius for 4*pi*r*r*local-pseudopot. charge    3.19739
atom: Maximum radius for r*vlocal+2*Zval:    2.82168
GHOST: No ghost state for L =  0
GHOST: No ghost state for L =  1
GHOST: No ghost state for L =  2
GHOST: No ghost state for L =  3

KBgen: Kleinman-Bylander projectors: 
   l= 0   rc=  2.966357   el= -0.323666   Ekb=  3.565490   kbcos=  0.247453
   l= 1   rc=  3.003670   el= -0.054265   Ekb=  1.619308   kbcos=  0.223076
   l= 2   rc=  2.786631   el= -0.547066   Ekb= -7.840816   kbcos= -0.714112
   l= 3   rc=  3.079709   el=  0.002953   Ekb= -2.732950   kbcos= -0.012571

KBgen: Total number of  Kleinman-Bylander projectors:   16
atom: -------------------------------------------------------------------------

atom: SANKEY-TYPE ORBITALS:
atom: Selected multiple-zeta basis: split     

SPLIT: Orbitals with angular momentum L= 0

SPLIT: Basis orbitals for state 5s

SPLIT: PAO cut-off radius determined from an
SPLIT: energy shift=  0.020000 Ry

   izeta = 1
                 lambda =    1.000000
                     rc =    6.684855
                 energy =   -0.305483
                kinetic =    0.327133
    potential(screened) =   -0.632616
       potential(ionic) =   -8.088030

   izeta = 2
                 rmatch =    6.279837
              splitnorm =    0.150000
                 energy =   -0.253539
                kinetic =    0.499634
    potential(screened) =   -0.753173
       potential(ionic) =   -8.691029

SPLIT: Orbitals with angular momentum L= 2

SPLIT: Basis orbitals for state 4d

SPLIT: PAO cut-off radius determined from an
SPLIT: energy shift=  0.020000 Ry

   izeta = 1
                 lambda =    1.000000
                     rc =    3.954440
                 energy =   -0.527442
                kinetic =    6.210364
    potential(screened) =   -6.737807
       potential(ionic) =  -18.733043

   izeta = 2
                 rmatch =    2.490121
              splitnorm =    0.150000
                 energy =   -0.148928
                kinetic =    8.576261
    potential(screened) =   -8.725189
       potential(ionic) =  -21.658221

POLgen: Perturbative polarization orbital with L=  1

POLgen: Polarization orbital for state 5s

   izeta = 1
                     rc =    6.684855
                 energy =   -0.001728
                kinetic =    0.597115
    potential(screened) =   -0.598843
       potential(ionic) =   -7.554613
atom: Total number of Sankey-type orbitals: 15

atm_pop: Valence configuration (for local Pseudopot. screening):
 5s( 1.00)                                                            
 5p( 0.00)                                                            
 4d(10.00)                                                            
Vna: chval, zval:   11.00000  11.00000

Vna:  Cut-off radius for the neutral-atom potential:   6.684855

atom: _________________________________________________________________________

prinput: Basis input ----------------------------------------------------------

PAO.BasisType split     

%block ChemicalSpeciesLabel
    1    1 H                       # Species index, atomic number, species label
    2    6 C                       # Species index, atomic number, species label
    3    9 F                       # Species index, atomic number, species label
    4   47 Ag                      # Species index, atomic number, species label
%endblock ChemicalSpeciesLabel

%block PAO.Basis                 # Define Basis set
H                     1                    # Species label, number of l-shells
 n=1   0   2 P   1                   # n, l, Nzeta, Polarization, NzetaPol
   4.709      3.760   
   1.000      1.000   
C                     2                    # Species label, number of l-shells
 n=2   0   2                         # n, l, Nzeta 
   4.088      3.347   
   1.000      1.000   
 n=2   1   2 P   1                   # n, l, Nzeta, Polarization, NzetaPol
   4.870      3.475   
   1.000      1.000   
F                     2                    # Species label, number of l-shells
 n=2   0   2                         # n, l, Nzeta 
   3.012      2.204   
   1.000      1.000   
 n=2   1   2 P   1                   # n, l, Nzeta, Polarization, NzetaPol
   3.588      2.260   
   1.000      1.000   
Ag                    2                    # Species label, number of l-shells
 n=5   0   2 P   1                   # n, l, Nzeta, Polarization, NzetaPol
   6.685      6.280   
   1.000      1.000   
 n=4   2   2                         # n, l, Nzeta 
   3.954      2.490   
   1.000      1.000   
%endblock PAO.Basis

prinput: ----------------------------------------------------------------------

Dumping basis to NetCDF file H.ion.nc
Dumping basis to NetCDF file C.ion.nc
Dumping basis to NetCDF file F.ion.nc
Dumping basis to NetCDF file Ag.ion.nc
coor:   Atomic-coordinates input format  =     Cartesian coordinates
coor:                                          (in Angstroms)

siesta: WARNING: XV file not found

siesta: Atomic coordinates (Bohr) and species
siesta:     31.64159  33.70895  44.10434  2        1
siesta:     30.12792  32.87558  42.98751  1        2
siesta:     30.84223  34.70294   1.04502  1        3
siesta:     32.90392  32.21795   0.06992  1        4
siesta:     33.08912  35.61946  42.47539  2        5
siesta:     31.70017  35.99174  40.35701  3        6
siesta:     32.97762  37.87391  43.68671  3        7
siesta:     35.83678  35.20183  41.67037  2        8
siesta:     35.81032  34.10390  39.93182  1        9
siesta:     36.60212  37.05754  41.19038  1       10
siesta:     37.77753  33.91682  43.42025  2       11
siesta:     37.56777  31.37325  43.04231  3       12
siesta:     40.11134  34.50074  42.52074  3       13
siesta:     37.72084  34.38169   1.60438  2       14
siesta:     36.38102  35.89347   1.94453  1       15
siesta:     37.01975  32.69039   2.50578  1       16
siesta:     40.14536  35.17160   2.99711  2       17
siesta:     40.85590  37.45439   2.03902  3       18
siesta:     39.44994  35.69316   5.40462  3       19
siesta:     42.44138  33.37447   3.07459  2       20
siesta:     42.27508  32.29921   4.82258  1       21
siesta:     42.24295  32.05166   1.51178  1       22
siesta:      2.58704  34.41571   3.02734  2       23
siesta:      3.01033  35.67615   5.23832  3       24
siesta:      4.07236  32.31433   3.18419  3       25
siesta:      3.57347  36.11835   0.85416  2       26
siesta:      2.40562  35.72340  43.89836  1       27
siesta:      3.18608  38.07233   1.39273  1       28
siesta:      6.34570  36.01253  44.65614  2       29
siesta:      6.64239  33.89036  43.22183  3       30
siesta:      6.57814  37.91359  42.94593  3       31
siesta:      8.63038  36.28843   1.78390  2       32
siesta:     10.10248  37.26163   0.73321  1       33
siesta:      8.03890  37.54887   3.31647  1       34
siesta:      9.90784  33.99052   3.07837  2       35
siesta:     12.14905  34.88247   3.96465  3       36
siesta:      8.59070  33.45572   5.21376  3       37
siesta:     10.42373  31.41482   1.78390  2       38
siesta:     11.16073  30.13925   3.23710  1       39
siesta:      8.59826  30.69861   1.13573  1       40
siesta:     12.25488  31.22396  44.20449  2       41
siesta:     11.22876  29.50620  42.58122  3       42
siesta:     12.15850  33.46706  42.96483  3       43
siesta:     15.05167  30.49641  44.62212  2       44
siesta:     15.64883  31.30711   1.71587  1       45
siesta:     15.13104  28.45362   0.12283  1       46
siesta:     17.10959  31.25797  42.70027  2       47
siesta:     17.73698  33.69761  43.19538  3       48
siesta:     19.27332  29.94839  43.23128  3       49
siesta:     16.57101  31.03309  39.83733  2       50
siesta:     15.14049  29.54966  39.64836  1       51
siesta:     15.75087  32.83589  39.24963  1       52
siesta:     18.68373  30.36980  37.94572  2       53
siesta:     19.53789  28.01331  38.49752  3       54
siesta:     17.51588  30.12036  35.66671  3       55
siesta:     20.96463  32.14992  37.52809  2       56
siesta:     20.35614  33.65226  36.23173  1       57
siesta:     21.36714  33.04187  39.34600  1       58
siesta:     23.48931  31.08412  36.52086  2       59
siesta:     22.92428  29.49297  34.59334  3       60
siesta:     24.75731  33.03810  35.40592  3       61
siesta:     25.34502  29.74430  38.34256  2       62
siesta:     25.62281  31.00097  39.94505  1       63
siesta:     24.36992  28.05677  39.01152  1       64
siesta:     27.99819  28.92038  37.46384  2       65
siesta:     28.10402  28.87314  34.89003  3       66
siesta:     29.64415  30.79499  38.09311  3       67
siesta:     29.11124  26.39382  38.42571  2       68
siesta:     27.91882  24.88392  37.66604  1       69
siesta:     30.98963  26.19350  37.59801  1       70
siesta:     29.39659  25.90627  41.28864  2       71
siesta:     30.65515  27.90749  42.33366  3       72
siesta:     27.06656  26.02154  42.36201  3       73
siesta:     30.63436  23.41372  42.17303  2       74
siesta:     29.99563  23.06034  44.10056  1       75
siesta:     29.86524  21.89816  40.99007  1       76
siesta:     33.53509  23.12648  42.14847  2       77
siesta:     34.05855  20.85314  43.22372  3       78
siesta:     34.21539  22.89404  39.66915  3       79
siesta:     35.32089  25.07668  43.31065  2       80
siesta:     37.26163  24.47763  42.90814  1       81
siesta:     35.06010  26.87003  42.35634  1       82
siesta:     35.25474  25.68895   1.48910  2       83
siesta:     35.37191  28.23252   1.72532  3       84
siesta:     32.92282  25.12203   2.39239  3       85
siesta:     37.16337  24.48708   3.32403  2       86
siesta:     36.19394  24.31134   5.11171  1       87
siesta:     37.63202  22.57657   2.67018  1       88
siesta:     39.66726  25.88170   3.88906  2       89
siesta:     40.82944  26.23319   1.60627  3       90
siesta:     39.12868  28.22496   4.78479  3       91
siesta:     41.58533  24.74597   5.75800  2       92
siesta:     40.95416  25.21841   7.65906  1       93
siesta:     41.53998  22.69184   5.58981  1       94
siesta:      1.81792  25.53021   5.58981  2       95
siesta:      1.94642  28.08701   5.36682  3       96
siesta:      2.84593  25.11447   7.90473  3       97
siesta:      3.59426  24.39637   3.59426  2       98
siesta:      2.57192  24.21307   1.80091  1       99
siesta:      5.09281  25.76643   3.22576  1      100
siesta:      4.87550  21.80556   4.10449  2      101
siesta:      3.23332  20.35425   5.40462  3      102
siesta:      5.08714  20.61881   1.83870  3      103
siesta:      7.42474  21.58824   5.51989  2      104
siesta:      7.26978  22.68428   7.25655  1      105
siesta:      7.58536  19.57946   6.04713  1      106
siesta:      9.95319  22.31012   4.25755  2      107
siesta:      9.43541  23.51009   2.02201  3      108
siesta:     10.95475  24.15260   5.74288  3      109
siesta:     12.02244  20.30323   3.73221  2      110
siesta:     11.18907  18.85569   2.49255  1      111
siesta:     13.50966  21.24242   2.63995  1      112
siesta:     13.42273  18.89916   5.90540  2      113
siesta:     15.90394  19.55867   5.70698  3      114
siesta:     12.70841  19.95552   8.13716  3      115
siesta:     13.40761  16.00032   6.17185  2      116
siesta:     13.14683  15.19151   4.31614  1      117
siesta:     15.30112  15.47875   6.74066  1      118
siesta:     11.54245  14.66995   7.99921  2      119
siesta:      9.15573  15.47686   7.47765  3      120
siesta:     11.46875  12.17929   7.34348  3      121
siesta:     11.91284  14.80790  10.88483  2      122
siesta:     13.57580  16.00032  11.18340  1      123
siesta:     10.31224  15.85481  11.62938  1      124
siesta:     12.21519  12.41551  12.55157  2      125
siesta:     12.04890  13.11470  15.01766  3      126
siesta:     10.15161  10.91317  12.27945  3      127
siesta:     14.54901  10.69207  12.28700  2      128
siesta:     14.19185   9.04234  13.46619  1      129
siesta:     14.57735  10.06658  10.33114  1      130
siesta:     17.21919  11.63505  12.91061  2      131
siesta:     18.79522   9.84359  11.96953  3      132
siesta:     17.70107  13.70808  11.44230  3      133
siesta:     18.02421  12.22464  15.67150  2      134
siesta:     19.33758  13.81957  15.57324  1      135
siesta:     16.33291  12.94085  16.62771  1      136
siesta:     19.14671  10.15161  17.40061  2      137
siesta:     17.75965  10.19697  19.56434  3      138
siesta:     18.60247   7.83859  16.41039  3      139
siesta:     21.98508  10.10248  18.15461  2      140
siesta:     22.07957  10.83758  20.08213  1      141
siesta:     22.51988   8.10315  18.23775  1      142
siesta:     24.04300  11.50466  16.62015  2      143
siesta:     23.91071  13.99532  17.28155  3      144
siesta:     26.34090  10.70341  17.48564  3      145
siesta:     24.06945  11.31946  13.71375  2      146
siesta:     23.07168   9.59792  13.19974  1      147
siesta:     22.93184  12.91061  13.01833  1      148
siesta:     26.55444  11.36671  12.19252  2      149
siesta:     25.81745  11.77678   9.77556  3      150
siesta:     27.90182  13.46430  12.85014  3      151
siesta:     28.41204   9.11604  12.14527  2      152
siesta:     30.04855   9.65650  13.28856  1      153
siesta:     27.52954   7.52111  13.12226  1      154
siesta:     29.39092   8.18063   9.57147  2      155
siesta:     30.79310  10.09114   8.52834  3      156
siesta:     31.08412   6.33059  10.06469  3      157
siesta:     27.59190   7.15451   7.50788  2      158
siesta:     26.83223   8.77778   6.48365  1      159
siesta:     28.76731   6.07358   6.20019  1      160
siesta:     25.28266   5.49533   8.14661  2      161
siesta:     23.45907   7.03545   9.08203  3      162
siesta:     24.30378   4.67707   5.91296  3      163
siesta:     25.57178   3.17096   9.87004  2      164
siesta:     25.32801   1.51367   8.65306  1      165
siesta:     27.52765   3.13128  10.52200  1      166
siesta:     23.86347   2.80813  12.20386  2      167
siesta:     25.14282   1.35115  13.87437  3      168
siesta:     23.64615   5.03234  13.45297  3      169
siesta:     21.19896   1.69509  11.96575  2      170
siesta:     20.47330   1.43619  13.86871  1      171
siesta:     20.01599   3.11805  11.03978  1      172
siesta:     20.73597  45.43470  10.52578  2      173
siesta:     18.30200  44.75629  10.96231  3      174
siesta:     20.76243  46.04131   8.01055  3      175
siesta:     22.38948  43.04042  10.87538  2      176
siesta:     21.35769  41.51352   9.94563  1      177
siesta:     24.12803  43.34278   9.81713  1      178
siesta:     23.16427  42.07477  13.53233  2      179
siesta:     25.68328  42.48673  13.85737  3      180
siesta:     22.05311  43.55254  15.32380  3      181
siesta:     22.64838  39.31955  14.31090  2      182
siesta:     22.99609  39.23640  16.32913  1      183
siesta:     20.64149  38.98696  14.01988  1      184
siesta:     24.07134  37.09156  13.03912  2      185
siesta:     22.63704  36.38858  11.03034  3      186
siesta:     26.26720  37.91548  11.99221  3      187
siesta:     24.77810  34.72184  14.58680  2      188
siesta:     26.83034  34.54610  14.48476  1      189
siesta:     24.30756  35.09979  16.55779  1      190
siesta:     23.62914  32.10079  13.94429  2      191
siesta:     21.08179  32.31811  14.08980  3      192
siesta:     24.11291  31.58112  11.45930  3      193
siesta:     24.40204  29.70651  15.43529  2      194
siesta:     23.18128  28.17394  14.79467  1      195
siesta:     26.30311  29.16793  14.82113  1      196
siesta:     24.37559  29.64415  18.36626  2      197
siesta:     25.54155  27.49553  19.19963  3      198
siesta:     25.96674  31.49041  19.11459  3      199
siesta:     21.94540  30.01453  19.92717  2      200
siesta:     22.48019  29.70273  21.88871  1      201
siesta:     21.50131  32.02331  19.74576  1      202
siesta:     19.49631  28.50653  19.43773  2      203
siesta:     18.93695  28.59346  16.93951  3      204
siesta:     19.92906  25.99697  19.86670  3      205
siesta:     17.08880  29.21707  20.90983  2      206
siesta:     15.89071  27.55033  20.90605  1      207
siesta:     17.66706  29.58178  22.84680  1      208
siesta:     15.37860  31.44883  20.09158  2      209
siesta:     13.58336  30.47563  18.53444  3      210
siesta:     14.03689  32.16315  22.17217  3      211
siesta:     16.35937  33.88280  18.80089  2      212
siesta:     17.51588  33.32344  17.17195  1      213
siesta:     14.70774  34.87869  18.05256  1      214
siesta:     17.90138  35.80654  20.36559  2      215
siesta:     18.77633  34.59145  22.46507  3      216
siesta:     20.06512  36.37157  19.08057  3      217
siesta:     16.67495  38.30287  21.28210  2      218
siesta:     14.76633  37.85879  21.95674  1      219
siesta:     17.76343  38.90948  22.91105  1      220
siesta:     16.42551  40.57622  19.48686  2      221
siesta:     17.08880  39.85623  17.12470  3      222
siesta:     13.91784  41.01274  19.30734  3      223
siesta:     17.80690  43.06877  20.10291  2      224
siesta:     17.65950  43.37490  22.12870  1      225
siesta:     19.79867  42.76830  19.68906  1      226
siesta:     17.04345  45.57643  18.82357  2      227
siesta:     16.91495  45.20794  16.27811  3      228
siesta:     14.63216  46.15091  19.44718  3      229
siesta:     18.68562   1.68942  19.32813  2      230
siesta:     20.65283   1.08092  19.53789  1      231
siesta:     18.57413   2.86294  17.63682  1      232
siesta:     18.08469   3.47521  21.54478  2      233
siesta:     19.99142   5.20998  21.53344  3      234
siesta:     16.01921   4.85471  20.91172  3      235
siesta:     17.85414   2.51523  24.31323  2      236
siesta:     19.15238   0.92030  24.51165  1      237
siesta:     18.58357   4.05157  25.49431  1      238
siesta:     15.28222   1.70075  25.45840  2      239
siesta:     13.45108   3.38072  24.77243  3      240
siesta:     14.58491  45.72005  24.40582  3      241
siesta:     15.07813   1.26801  28.34023  2      242
siesta:     16.23842  45.87312  28.81833  1      243
siesta:     15.90772   2.92719  29.24163  1      244
siesta:     12.48165   0.86361  29.61013  2      245
siesta:     12.96920  46.20949  31.94961  3      246
siesta:     11.48576   3.20498  29.99941  3      247
siesta:     10.39161  45.40258  28.45173  2      248
siesta:      9.61871   0.15307  26.80389  1      249
siesta:     11.29490  43.66403  27.80544  1      250
siesta:      8.14661  44.55598  30.12414  2      251
siesta:      8.85337  42.39602  31.32411  3      252
siesta:      7.83292   0.03024  32.00441  3      253
siesta:      5.52178  44.02119  28.97140  2      254
siesta:      5.85059  43.04231  27.19884  1      255
siesta:      4.57314  42.66814  30.20539  1      256
siesta:      3.58292  46.14146  28.41960  2      257
siesta:      4.58637   1.30013  26.51665  3      258
siesta:      1.49477  45.03408  27.39348  3      259
siesta:      2.67774   1.78579  30.45673  2      260
siesta:      4.32181   2.85160  31.08790  1      261
siesta:      1.43241   3.10482  29.48163  1      262
siesta:      1.20187   0.89195  32.81322  2      263
siesta:     42.04264   2.73821  33.27242  3      264
siesta:     42.37713  45.09833  32.16126  3      265
siesta:      2.54924   0.40440  35.36813  2      266
siesta:      4.52401   0.97321  35.12624  1      267
siesta:      1.68942   1.68942  36.72873  1      268
siesta:      2.56625  43.99851  36.59078  2      269
siesta:      3.21632  42.28075  34.78042  3      270
siesta:      4.55802  43.97394  38.20839  3      271
siesta:      0.24944  43.00074  38.07422  2      272
siesta:     42.52641  44.29898  39.65214  1      273
siesta:     41.20549  43.14435  36.81944  1      274
siesta:      0.25889  40.30032  39.18349  2      275
siesta:      2.46987  39.97150  40.46283  3      276
siesta:     41.09400  40.18126  41.05432  3      277
siesta:     42.43760  37.96650  37.50163  2      278
siesta:      1.54013  37.74163  36.35457  1      279
siesta:     42.37901  36.36212  38.77909  1      280
siesta:     40.12646  37.70950  35.74796  2      281
siesta:     39.28364  35.29065  36.03331  3      282
siesta:     38.22729  39.15703  36.69094  3      283
siesta:     40.40425  38.27831  32.89826  2      284
siesta:     38.48807  38.24051  32.12725  1      285
siesta:     41.09967  40.21906  32.72818  1      286
siesta:     42.06532  36.62480  31.17860  2      287
siesta:      1.47966  38.08933  30.49641  3      288
siesta:      0.52723  34.75397  32.59779  3      289
siesta:     40.95983  35.39836  28.76920  2      290
siesta:     41.97461  33.61635  28.51598  1      291
siesta:     38.99073  34.94483  29.17171  1      292
siesta:     41.08266  36.82133  26.23319  2      293
siesta:      0.80880  36.24874  25.22596  3      294
siesta:     39.41403  35.71017  24.62503  3      295
siesta:     40.72361  39.72395  26.01398  2      296
siesta:     42.12390  40.59322  27.25364  1      297
siesta:     41.17337  40.24362  24.06945  1      298
siesta:     38.14603  40.94471  26.66027  2      299
siesta:     36.63047  39.13057  27.65615  3      300
siesta:     38.59578  42.56421  28.60480  3      301
siesta:     36.59456  42.33744  24.59480  2      302
siesta:     37.89280  43.44482  23.45718  1      303
siesta:     35.81599  40.84645  23.40049  1      304
siesta:     34.38547  44.10623  25.32423  2      305
siesta:     33.57100  45.13424  23.11703  3      306
siesta:     32.34268  42.72295  26.10091  3      307
siesta:     34.79365   0.13984  27.10624  2      308
siesta:     36.80243   0.56881  26.98719  1      309
siesta:     33.75997   1.72154  26.28988  1      310
siesta:     34.08311   0.06992  29.95406  2      311
siesta:     31.87780   1.39273  30.20917  3      312
siesta:     33.50864  43.90780  30.63058  3      313
siesta:     35.93316   1.15840  31.93638  2      314
siesta:     37.83233   1.15273  31.13136  1      315
siesta:     35.41159   3.11238  32.23307  1      316
siesta:     36.15614  46.15091  34.55366  2      317
siesta:     37.18038  43.81143  34.19839  3      318
siesta:     37.94194   1.22454  35.83867  3      319
siesta:     33.82611  45.90147  36.28465  2      320
siesta:     32.14236  46.22272  35.12057  1      321
siesta:     33.76942  43.93426  36.86101  1      322
siesta:     33.53131   1.30202  38.68649  2      323
siesta:     33.97918   3.76623  38.04776  3      324
siesta:     31.02932   1.26990  39.32900  3      325
siesta:     35.09034   0.74266  41.09589  2      326
siesta:     36.93660   1.62517  40.82566  1      327
siesta:     34.16248   1.67430  42.67570  1      328
siesta:     35.59490  44.23662  41.89524  2      329
siesta:     33.40470  42.93459  41.64580  3      330
siesta:     37.15959  43.21805  40.13213  3      331
siesta:     36.68338  43.58466  44.51441  2      332
siesta:     35.15270  43.77174   1.19053  1      333
siesta:     37.18227  41.59289  44.45394  1      334
siesta:     39.00018  45.00951   0.87305  2      335
siesta:     40.45527  45.72950  43.57710  3      336
siesta:     38.17437   1.00344   1.87272  3      337
siesta:     40.82944  43.76418   2.76467  2      338
siesta:     41.86123  42.29398   1.75556  1      339
siesta:     42.20516  45.24195   3.25033  1      340
siesta:     39.86379  42.62468   5.28746  2      341
siesta:     38.75641  44.53141   6.63294  3      342
siesta:     37.91548  41.02597   4.70920  3      343
siesta:     41.65714  41.16959   7.08270  2      344
siesta:     40.47228  40.23040   8.48109  1      345
siesta:      0.00000  39.70127   5.97154  1      346
siesta:      1.14895  42.58311   8.56802  2      347
siesta:      2.19208  44.39157   7.05435  3      348
siesta:     42.57933  43.90213  10.44830  3      349
siesta:      3.30891  41.06754   9.80012  2      350
siesta:      3.50544  41.71194  11.73709  1      351
siesta:      2.70042  39.10412   9.84926  1      352
siesta:      5.96965  41.12802   8.58125  2      353
siesta:      7.08270  38.88113   9.10848  3      354
siesta:      5.72209  41.03164   6.01500  3      355
siesta:      7.85748  43.25963   9.19163  2      356
siesta:      9.25777  43.30120   7.67418  1      357
siesta:      6.82569  45.03975   9.08581  1      358
siesta:      9.32202  43.24640  11.70686  2      359
siesta:      8.95731  45.58399  12.74243  3      360
siesta:      8.15039  41.62312  13.33202  3      361
siesta:     12.19441  42.70027  11.77678  2      362
siesta:     13.09014  44.09111  10.55412  1      363
siesta:     12.83880  43.06310  13.69863  1      364
siesta:     13.20919  40.07166  11.01144  2      365
siesta:     12.47598  39.57277   8.59259  3      366
siesta:     15.76221  40.30032  10.82625  3      367
siesta:     12.64227  37.72084  12.64794  2      368
siesta:     13.01833  38.22351  14.60948  1      369
siesta:     10.62971  37.31077  12.50810  1      370
siesta:     14.10114  35.24719  12.10370  2      371
siesta:     16.55401  35.59301  12.84825  3      372
siesta:     13.21675  33.45006  13.70808  3      373
siesta:     14.09358  34.10390   9.43163  2      374
siesta:     12.16606  34.27020   8.70597  1      375
siesta:     15.27277  35.26230   8.23354  1      376
siesta:     14.87593  31.34112   8.98565  2      377
siesta:     12.90872  29.86146   9.75099  3      378
siesta:     14.98175  31.01609   6.42885  3      379
siesta:     17.30423  30.23185  10.14216  2      380
siesta:     18.89727  31.21073   9.30124  1      381
siesta:     17.25321  30.69861  12.15283  1      382
siesta:     17.89004  27.37836   9.98343  2      383
siesta:     20.44684  27.13648  10.08169  3      384
siesta:     17.11148  26.34279  12.19819  3      385
siesta:     16.90928  25.68328   7.80646  2      386
siesta:     16.86392  23.76709   8.53779  1      387
siesta:     14.97042  26.24264   7.40395  1      388
siesta:     18.34169  25.58501   5.27423  2      389
siesta:     16.63149  24.88770   3.48088  3      390
siesta:     18.95774  27.99252   4.59771  3      391
siesta:     20.72274  23.93150   5.00589  2      392
siesta:     22.32901  25.08423   5.55958  1      393
siesta:     20.56023  22.41405   6.40617  1      394
siesta:     21.46163  22.65027   2.47554  2      395
siesta:     24.02032  22.40838   2.49633  3      396
siesta:     20.63393  20.21063   2.57759  3      397
siesta:     20.77377  23.80300  44.57299  2      398
siesta:     19.64560  25.49431   0.21165  1      399
siesta:     22.55200  24.42472  43.75096  1      400
siesta:     19.38482  22.19862  42.59255  2      401
siesta:     17.44596  20.95896  43.75663  3      402
siesta:     18.19240  23.83890  41.00140  3      403
siesta:     20.86447  20.28433  40.97495  2      404
siesta:     21.61092  18.85381  42.24673  1      405
siesta:     19.50387  19.33946  39.75418  1      406
siesta:     23.09624  21.22163  39.33655  2      407
siesta:     22.93750  23.77276  39.05310  3      408
siesta:     25.22596  20.94762  40.74251  3      409
siesta:     23.64048  20.10102  36.70228  2      410
siesta:     25.62092  19.53789  36.73440  1      411
siesta:     22.56901  18.35492  36.50574  1      412
siesta:     23.21718  21.68840  34.30232  2      413
siesta:     25.26754  23.26632  34.08500  3      414
siesta:     23.46285  20.11425  32.29921  3      415
siesta:     20.81912  23.32301  33.86202  2      416
siesta:     20.90605  24.87070  35.19049  1      417
siesta:     21.02888  24.13748  31.97418  1      418
siesta:     18.10169  22.21374  33.99241  2      419
siesta:     17.41950  21.60714  31.59812  3      420
siesta:     18.19051  19.98197  35.21317  3      421
siesta:     15.92284  23.77654  35.12435  2      422
siesta:     16.58235  24.66094  36.86479  1      423
siesta:     15.52978  25.31289  33.81288  1      424
siesta:     13.34903  22.52176  35.71773  2      425
siesta:     11.66339  24.43039  35.92749  3      426
siesta:     12.60826  21.29722  33.58612  3      427
siesta:     13.00132  20.66605  37.94383  2      428
siesta:     12.11693  18.95774  37.15959  1      429
siesta:     14.87782  20.13882  38.62791  1      430
siesta:     11.45363  21.42383  40.31732  2      431
siesta:     12.60826  20.28055  42.29965  3      432
siesta:     11.84670  23.91638  40.81054  3      433
siesta:      8.61526  20.80589  40.58944  2      434
siesta:      8.41117  18.75176  40.46850  1      435
siesta:      8.07480  21.34447  42.50185  1      436
siesta:      6.59893  21.95296  38.80176  2      437
siesta:      7.14506  21.27077  36.37157  3      438
siesta:      4.40117  20.72652  39.29687  3      439
siesta:      6.08492  24.83290  38.79231  2      440
siesta:      7.89528  25.76076  38.40681  1      441
siesta:      4.85471  25.16927  37.17093  1      442
siesta:      4.87739  26.15193  41.10156  2      443
siesta:      2.64373  24.98030  41.67793  3      444
siesta:      6.37972  25.72296  43.15002  3      445
siesta:      4.39173  29.00920  41.03542  2      446
siesta:      3.82103  29.58745  42.94971  1      447
siesta:      6.18319  29.91627  40.63669  1      448
siesta:      2.42263  30.19217  39.23073  2      449
siesta:      2.63806  32.73574  39.52742  3      450
siesta:      3.16151  29.79910  36.80621  3      451
siesta:     42.15792  29.58178  39.43482  2      452
siesta:     41.78564  28.92794  41.34533  1      453
siesta:     41.14502  31.36569  39.20049  1      454
siesta:     40.90125  27.65804  37.60934  2      455
siesta:     42.48106  25.65115  37.31833  3      456
siesta:     38.89436  26.59791  38.81877  3      457
siesta:     40.02630  28.47818  34.96751  2      458
siesta:     41.31132  29.94461  34.29287  1      459
siesta:     40.28331  26.82278  33.75241  1      460
siesta:     37.31833  29.46084  34.52342  2      461
siesta:     36.52275  30.58901  36.68905  3      462
siesta:     37.46006  31.39025  32.82456  3      463
siesta:     35.17538  27.65237  33.66548  2      464
siesta:     35.09979  26.11980  35.04876  1      465
siesta:     33.41226  28.71251  33.81666  1      466
siesta:     35.24341  26.42783  31.01231  2      467
siesta:     37.06132  24.60424  31.00286  3      468
siesta:     33.05888  25.08990  30.80066  3      469
siesta:     35.45128  28.03599  28.60291  2      470
siesta:     34.25130  27.11002  27.20262  1      471
siesta:     34.69728  29.90493  29.03565  1      472
siesta:     38.01942  28.50464  27.29144  2      473
siesta:     37.80588  30.79877  26.15004  3      474
siesta:     39.82599  28.83723  29.08290  3      475
siesta:     39.06254  26.60924  25.33557  2      476
siesta:     39.33655  24.80644  26.30878  1      477
siesta:     37.57533  26.28610  23.92394  1      478
siesta:     41.51541  27.22152  23.89182  2      479
siesta:      0.95620  26.70562  25.40738  3      480
siesta:     41.70627  25.46785  22.00965  3      481
siesta:     41.92170  29.83123  22.68239  2      482
siesta:     40.10567  30.47752  21.93406  1      483
siesta:     42.45460  31.13703  24.18095  1      484
siesta:      1.20754  30.19217  20.49031  2      485
siesta:      0.06047  29.31722  18.35492  3      486
siesta:      1.38706  32.71495  20.10669  3      487
siesta:      3.94764  29.16227  20.61503  2      488
siesta:      3.83804  27.12703  20.86636  1      489
siesta:      4.81691  29.54399  18.79144  1      490
siesta:      5.79768  30.15248  22.66538  2      491
siesta:      4.44842  31.43183  24.43984  3      492
siesta:      6.61026  28.09457  23.94473  3      493
siesta:      8.14094  31.74930  21.98130  2      494
siesta:      9.40328  31.72851  23.61781  1      495
siesta:      9.12360  30.78932  20.45629  1      496
siesta:      7.86126  34.54232  21.14982  2      497
siesta:     10.25555  35.45317  20.95896  3      498
siesta:      6.99955  34.58389  18.71774  3      499
siesta:      6.29846  36.45283  22.72208  2      500
siesta:      4.30102  36.14292  22.20240  1      501
siesta:      6.52712  35.91615  24.70818  1      502
siesta:      6.72743  39.33655  22.60113  2      503
siesta:      4.54290  40.48173  23.36080  3      504
siesta:      8.40739  39.96961  24.44173  3      505
siesta:      7.59292  40.65936  20.13126  2      506
siesta:      9.11604  39.51608  19.32435  1      507
siesta:      5.98099  40.63102  18.84436  1      508
siesta:      8.60393  43.40703  20.15583  2      509
siesta:     10.49176  43.58088  21.88871  3      510
siesta:      9.75855  43.80387  17.90894  3      511
siesta:      6.82380  45.67470  20.59613  2      512
siesta:      4.88494  44.99818  20.37504  1      513
siesta:      7.06569  46.23784  22.57657  1      514
siesta:      7.05057   1.86138  18.97475  2      515
siesta:      6.16429   1.36627  16.61070  3      516
siesta:      5.32525   3.49788  19.95174  3      517
siesta:      9.58280   3.31458  18.74042  2      518
siesta:     10.42373   3.39395  20.62448  1      519
siesta:     10.83380   2.14295  17.57635  1      520
siesta:      9.70942   6.01311  17.57257  2      521
siesta:     11.12860   5.84115  15.42773  3      522
siesta:      7.36993   6.67641  16.71463  3      523
siesta:     10.80168   8.24677  19.11459  2      524
siesta:     12.06780   7.47765  20.55078  1      525
siesta:     11.96764   9.34092  17.82390  1      526
siesta:      9.05557  10.18563  20.40527  2      527
siesta:     10.52011  11.76166  21.81501  3      528
siesta:      8.13527  11.75410  18.58357  3      529
siesta:      6.76711   9.38438  22.08713  2      530
siesta:      5.85248  11.13238  22.68239  1      531
siesta:      5.41785   8.39417  20.88715  1      532
siesta:      7.17907   7.76867  24.46440  2      533
siesta:      5.09092   6.28901  24.72897  3      534
siesta:      9.08770   6.11327  24.04488  3      535
siesta:      7.76867   9.06691  27.02120  2      536
siesta:      8.85526   7.68552  28.12292  1      537
siesta:      9.03100  10.64294  26.65271  1      538
siesta:      5.63139  10.00799  28.72574  2      539
siesta:      3.56214  10.32169  27.26687  3      540
siesta:      5.04368   8.04646  30.29043  3      541
siesta:      5.99421  12.42495  30.34334  2      542
siesta:      6.99766  13.79312  29.17360  1      543
siesta:      4.10827  13.14683  30.71562  1      544
siesta:      7.36805  12.20575  32.88692  2      545
siesta:      9.28612  10.53712  32.55810  3      546
siesta:      8.47543  14.47909  33.31777  3      547
siesta:      5.85059  11.48576  35.29254  2      548
siesta:      5.40840  13.22620  36.31110  1      549
siesta:      4.07803  10.61838  34.67460  1      550
siesta:      7.00711   9.67729  37.27864  2      551
siesta:      9.46564  10.28767  37.60179  3      552
siesta:      5.90351  10.25366  39.53309  3      553
siesta:      6.77845   6.77467  36.94416  2      554
siesta:      5.21754   6.13783  38.12524  1      555
siesta:      6.31547   6.44775  34.96751  1      556
siesta:      9.01022   4.98888  37.56588  2      557
siesta:      9.91351   5.58036  39.90914  3      558
siesta:      7.96898   2.66263  37.86257  3      559
siesta:     11.22498   4.64684  35.70261  2      560
siesta:     10.74688   3.01411  34.55177  1      561
siesta:     11.21931   6.28334  34.44972  1      562
siesta:     13.98209   4.24055  36.58133  2      563
siesta:     15.27655   3.78701  34.42326  3      564
siesta:     14.89294   6.48932  37.46006  3      565
siesta:     14.73231   2.11082  38.43704  2      566
siesta:     14.15405   2.72310  40.33433  1      567
siesta:     13.63249   0.42141  37.95138  1      568
siesta:     17.54989   1.29068  38.63736  2      569
siesta:     19.01443   3.40907  38.56555  3      570
siesta:     17.93351   0.37228  41.01652  3      571
siesta:     18.70263  45.62557  36.75897  2      572
siesta:     18.34736   0.07937  34.85979  1      573
siesta:     20.73030  45.60667  37.04243  1      574
siesta:     17.86548  42.81176  36.73062  2      575
siesta:     15.97575  42.57366  34.99207  3      576
siesta:     19.86481  41.49462  35.77064  3      577
siesta:     17.03211  41.46817  39.19671  2      578
siesta:     18.71774  41.37368  40.36457  1      579
siesta:     15.69985  42.72295  40.14347  1      580
siesta:     15.82457  38.81121  39.18538  2      581
siesta:     17.58013  37.14447  38.33878  3      582
siesta:     15.46364  38.15737  41.64769  3      583
siesta:     13.34903  38.23106  37.78698  2      584
siesta:     13.78745  38.27642  35.76119  1      585
siesta:     12.86337  36.29220  38.27642  1      586
siesta:     10.96231  39.84111  38.22917  2      587
siesta:     10.53712  39.88080  40.76897  3      588
siesta:     11.56324  42.26941  37.66037  3      589
siesta:      8.37527  39.27797  36.96873  2      590
siesta:      7.02600  39.00963  38.50130  1      591
siesta:      7.84237  41.00329  35.94638  1      592
siesta:      8.06157  37.07644  35.08656  2      593
siesta:      5.98665  37.65470  33.65604  3      594
siesta:     10.01555  37.11991  33.42738  3      595
siesta:      7.68174  34.32500  36.04465  2      596
siesta:      7.87071  34.36846  38.09311  1      597
siesta:      5.73532  33.83745  35.55899  1      598
siesta:      9.33336  32.09134  35.10735  2      599
siesta:     11.66150  32.32378  36.19205  3      600
siesta:      8.41117  29.96918  36.22606  3      601
siesta:      9.74532  31.50742  32.26709  2      602
siesta:     11.00766  32.94928  31.52820  1      603
siesta:     10.78845  29.72540  32.20095  1      604
siesta:      7.51166  31.24474  30.42838  2      605
siesta:      6.09248  33.39903  30.55877  3      606
siesta:      8.52267  31.28065  28.06055  3      607
siesta:      5.68997  28.96384  30.57578  2      608
siesta:      4.48621  29.26242  32.22740  1      609
siesta:      4.47487  29.09801  28.90904  1      610
siesta:      6.72365  26.24642  30.69294  2      611
siesta:      8.80991  26.14248  29.20762  3      612
siesta:      7.61182  25.91949  33.06644  3      613
siesta:      5.07581  23.94473  29.98241  2      614
siesta:      4.86794  23.93906  27.93016  1      615
siesta:      6.13972  22.26287  30.50964  1      616
siesta:      2.39806  23.67261  31.08601  2      617
siesta:      2.59648  23.46096  33.63336  3      618
siesta:      1.14895  25.90627  30.75908  3      619
siesta:      0.59526  21.56934  30.16382  2      620
siesta:     41.27164  22.21563  30.49830  1      621
siesta:      0.82770  21.45974  28.14181  1      622
siesta:      0.71810  18.83680  31.16916  2      623
siesta:     41.39447  17.57635  29.98619  3      624
siesta:      2.84593  17.76154  30.20728  3      625
siesta:      0.64440  18.19429  34.00186  2      626
siesta:      0.96943  16.15150  34.13414  1      627
siesta:      2.22799  19.13537  34.91837  1      628
siesta:     40.85401  18.72908  35.59679  2      629
siesta:     39.77875  20.88715  34.74452  3      630
siesta:     39.14191  16.89983  35.09034  3      631
siesta:     41.00329  18.96719  38.50507  2      632
siesta:     42.03319  20.72463  38.86979  1      633
siesta:     39.06821  19.22797  39.18160  1      634
siesta:     42.21650  16.85825  40.14347  2      635
siesta:     40.52519  14.93262  40.30032  3      636
siesta:      1.64028  15.83780  38.90759  3      637
siesta:      0.51967  17.47997  42.85523  2      638
siesta:      1.78579  15.94363  43.39191  1      639
siesta:      1.67808  19.18073  42.73239  1      640
siesta:     41.17337  17.87115   0.31558  2      641
siesta:     41.98973  19.88560   1.67241  3      642
siesta:     38.97940  18.70641  43.95694  3      643
siesta:     40.51574  15.71497   2.17886  2      644
siesta:     38.59011  16.05512   2.83459  1      645
siesta:     40.48551  13.99721   1.07714  1      646
siesta:     42.17303  15.16128   4.52023  2      647
siesta:     41.89902  17.06801   6.22287  3      648
siesta:     41.04865  13.20163   5.74855  3      649
siesta:      2.43586  14.56790   4.27834  2      650
siesta:      3.27112  16.10236   3.17285  1      651
siesta:      3.22765  14.60381   6.16051  1      652
siesta:      3.30135  12.04134   3.07459  2      653
siesta:      2.38673  10.11949   4.49944  3      654
siesta:      2.10138  11.73142   0.81636  3      655
siesta:      6.14350  11.49332   2.72121  2      656
siesta:      6.98443  11.55379   4.59960  1      657
siesta:      6.23043   9.53934   2.05413  1      658
siesta:      7.77434  13.09959   0.91841  2      659
siesta:      6.24744  14.15216  43.81332  3      660
siesta:      8.67196  15.09892   2.26011  3      661
siesta:     10.04201  11.77300  44.31221  2      662
siesta:     11.18907  10.89239   1.09415  1      663
siesta:      9.30124  10.27633  43.06499  1      664
siesta:     11.90150  13.31124  42.64736  2      665
siesta:     10.44074  14.63027  40.97306  3      666
siesta:     13.03534  15.06112  44.14402  3      667
siesta:     13.91028  11.89016  41.04865  2      668
siesta:     13.65706   9.86437  41.36423  1      669
siesta:     13.45486  12.31913  39.07010  1      670
siesta:     16.75810  12.44952  41.43604  2      671
siesta:     17.05667  14.97042  41.15069  3      672
siesta:     17.31746  11.99599  43.90402  3      673
siesta:     18.78389  11.04167  39.86568  2      674
siesta:     18.70074   9.03856  40.40992  1      675
siesta:     18.19240  11.14750  37.89847  1      676
siesta:     21.59769  11.87504  40.05276  2      677
siesta:     22.81278  10.76955  38.04398  3      678
siesta:     21.77154  14.38460  39.50663  3      679
siesta:     23.16805  11.27600  42.44893  2      680
siesta:     21.96807  10.14216  43.66970  1      681
siesta:     24.74786  10.10437  41.83099  1      682
siesta:     24.26409  13.41139  44.14024  2      683
siesta:     26.27287  12.50432   0.72943  3      684
siesta:     25.27888  15.15561  42.55098  3      685
siesta:     22.59168  14.83814   1.36816  2      686
siesta:     23.54978  16.63338   1.71965  1      687
siesta:     20.81534  15.28033   0.40440  1      688
siesta:     21.94540  13.66084   3.97221  2      689
siesta:     19.47553  12.94085   3.88717  3      690
siesta:     23.20585  11.42907   4.28779  3      691
siesta:     22.22130  15.20285   6.45909  2      692
siesta:     20.69629  16.60881   6.45342  1      693
siesta:     21.82446  13.93296   8.03323  1      694
siesta:     24.61558  16.69952   7.17718  2      695
siesta:     24.25464  19.11837   6.37594  3      696
siesta:     24.61558  16.90739   9.74532  3      697
siesta:     27.30277  15.86615   6.35704  2      698
siesta:     28.23441  15.09703   8.04079  1      699
siesta:     27.11380  14.33358   4.99833  1      700
siesta:     29.16982  17.77288   5.18730  2      701
siesta:     31.37703  16.48976   4.82069  3      702
siesta:     28.31189  18.31334   2.79869  3      703
siesta:     29.85013  20.36181   6.40995  2      704
siesta:     31.13325  21.32746   5.12494  1      705
siesta:     28.13992  21.50131   6.42129  1      706
siesta:     31.04254  20.49598   9.05746  2      707
siesta:     29.82556  22.43106  10.27256  3      708
siesta:     30.31500  18.40594  10.37082  3      709
siesta:     33.88847  20.90227   9.52422  2      710
siesta:     34.33823  22.78822   8.82880  1      711
siesta:     34.20406  20.93439  11.56891  1      712
siesta:     35.88024  19.09569   8.39795  2      713
siesta:     35.58923  19.15616   5.84304  3      714
siesta:     38.17437  20.16717   8.71542  3      715
siesta:     36.03898  16.24976   9.15006  2      716
siesta:     34.28154  15.33891   8.53779  1      717
siesta:     37.54509  15.42395   8.05591  1      718
siesta:     36.48874  15.45608  11.91095  2      719
siesta:     38.41248  13.78178  11.92607  3      720
siesta:     37.46006  17.44029  13.23943  3      721
siesta:     34.34201  14.22019  13.44919  2      722
siesta:     32.73952  15.50332  13.29990  1      723
siesta:     33.79399  12.50810  12.44196  1      724
siesta:     34.65948  13.51533  16.26299  2      725
siesta:     34.27209  15.63938  17.63115  3      726
siesta:     32.66960  11.99977  16.88471  3      727
siesta:     37.09723  12.29456  17.31746  2      728
siesta:     38.60145  13.67973  16.99620  1      729
siesta:     36.83267  12.09614  19.35647  1      730
siesta:     38.00052   9.71509  16.28756  2      731
siesta:     37.54509   7.97654  18.10169  3      732
siesta:     36.39803   9.05935  14.40350  3      733
siesta:     40.69905   9.30313  15.27466  2      734
siesta:     40.84456   7.28868  14.90995  1      735
siesta:     40.86345  10.32169  13.50588  1      736
siesta:      0.45164   9.98343  16.88660  2      737
siesta:     42.23162  11.16262  19.04089  3      738
siesta:      1.48910   7.77812  17.68028  3      739
siesta:      2.66263  11.51789  15.82079  2      740
siesta:      3.75300  12.09425  17.46297  1      741
siesta:      3.84559  10.24988  14.75499  1      742
siesta:      2.23177  13.86304  14.13516  2      743
siesta:      1.71776  13.02400  11.78245  3      744
siesta:      0.08315  15.05545  14.92506  3      745
siesta:      4.33125  15.88126  13.90839  2      746
siesta:      4.65440  16.70897  15.76788  1      747
siesta:      6.07169  14.91750  13.40194  1      748
siesta:      4.07236  18.19240  12.04512  2      749
siesta:      6.22665  19.63426  12.20008  3      750
siesta:      4.19330  17.29478   9.64139  3      751
siesta:      1.75367  20.00465  12.14527  2      752
siesta:      2.00311  21.33124  10.57113  1      753
siesta:      0.06992  18.90861  11.70497  1      754
siesta:      1.13195  21.50887  14.56790  2      755
siesta:     41.92548  20.22008  15.89638  3      756
siesta:      3.18986  21.49186  16.10992  3      757
siesta:      0.21921  24.28488  14.39216  2      758
siesta:      1.08092  25.26187  15.97953  1      759
siesta:      1.09793  25.04644  12.70085  1      760
siesta:     39.97717  24.93873  14.35248  2      761
siesta:     39.81655  27.25553  13.25454  3      762
siesta:     38.82255  23.39860  12.67062  3      763
siesta:     38.44460  24.98408  16.87337  2      764
siesta:     39.54065  23.82379  18.17539  1      765
siesta:     38.45594  26.93239  17.55745  1      766
siesta:     35.73474  24.03355  16.99053  2      767
siesta:     35.71584  21.52966  16.38960  3      768
siesta:     35.06955  24.02977  19.46608  3      769
siesta:     33.68060  25.35069  15.39938  2      770
siesta:     34.33256  25.39037  13.43596  1      771
siesta:     32.00252  24.16583  15.48064  1      772
siesta:     32.86235  28.08134  16.02677  2      773
siesta:     34.80310  29.68950  15.54678  3      774
siesta:     31.09924  28.70495  14.24665  3      775
siesta:     31.63025  28.72007  18.58924  2      776
siesta:     30.24697  30.17327  18.19429  1      777
siesta:     30.60980  27.03254  19.19963  1      778
siesta:     33.18171  29.65548  20.89471  2      779
siesta:     32.70739  27.96607  22.78822  3      780
siesta:     35.69694  29.34746  20.49787  3      781
siesta:     32.73763  32.33323  22.02477  2      782
siesta:     30.71184  32.54866  22.30634  1      783
siesta:     33.59178  32.33701  23.90316  1      784
siesta:     33.72785  34.72562  20.69440  2      785
siesta:     34.28531  36.37724  22.56523  3      786
siesta:     36.01819  34.18894  19.60781  3      787
siesta:     32.20850  36.20906  18.67995  2      788
siesta:     33.50864  37.56588  17.85225  1      789
siesta:     31.71151  34.85223  17.19651  1      790
siesta:     29.77832  37.66793  19.39994  2      791
siesta:     28.81267  38.61468  17.21919  3      792
siesta:     28.03788  35.93316  20.10669  3      793
siesta:     29.78965  39.80899  21.40305  2      794
siesta:     30.45862  38.97562  23.16805  1      795
siesta:     31.16916  41.19983  20.79078  1      796
siesta:     27.34057  41.22628  22.06067  2      797
siesta:     25.44139  40.29087  20.60936  3      798
siesta:     26.67916  40.57433  24.47385  3      799
siesta:     27.17994  44.12890  21.85280  2      800
siesta:     29.09612  44.86401  21.86603  1      801
siesta:     26.36358  44.50118  19.99142  1      802
siesta:     25.62659  45.69549  23.76709  2      803
siesta:     25.25242   1.76689  22.71074  3      804
siesta:     23.26065  44.71283  23.87292  3      805
siesta:     26.60357  46.08477  26.47696  2      806
siesta:     27.34246  44.28197  27.13648  1      807
siesta:     28.21173   1.14140  26.30689  1      808
siesta:     24.88203   0.88250  28.57456  2      809
siesta:     23.44395   2.78924  27.63915  3      810
siesta:     23.19640  45.28164  29.19628  3      811
siesta:     26.10469   1.80658  31.05199  2      812
siesta:     27.49364   0.38550  31.61891  1      813
siesta:     27.11758   3.54135  30.60980  1      814
siesta:     24.50787   2.35649  33.42549  2      815
siesta:     22.03611   2.22232  32.79054  3      816
siesta:     24.85558   0.40440  35.08089  3      817
siesta:     24.84424   4.81124  34.92404  2      818
siesta:     23.87670   6.31358  33.88091  1      819
siesta:     23.86725   4.54290  36.71172  1      820
siesta:     27.52576   5.81280  35.60623  2      821
siesta:     27.72607   5.80146  38.17437  3      822
siesta:     29.29833   4.11205  34.80310  3      823
siesta:     28.38370   8.47165  34.77664  2      824
siesta:     26.93239   9.78879  35.40592  1      825
siesta:     30.11847   8.92140  35.84623  1      826
siesta:     28.91093   9.09903  31.97607  2      827
siesta:     26.96829   8.17118  30.54932  3      828
siesta:     28.69172  11.65395  31.66048  3      829
siesta:     31.43750   8.31102  30.72696  2      830
siesta:     32.77353   9.84170  31.11057  1      831
siesta:     32.10079   6.62916  31.70017  1      832
siesta:     31.62080   7.79134  27.86780  2      833
siesta:     34.08878   7.13561  27.42750  3      834
siesta:     30.27909   5.63895  27.38214  3      835
siesta:     30.89137   9.85871  25.95162  2      836
siesta:     28.83534   9.94563  25.86847  1      837
siesta:     31.55088  11.64639  26.73775  1      838
siesta:     31.87402   9.75288  23.21152  2      839
siesta:     30.39059  11.26655  21.74320  3      840
siesta:     34.13792  10.96420  23.22663  3      841
siesta:     32.28409   7.23576  21.80934  2      842
siesta:     33.05699   7.73654  19.96496  1      843
siesta:     33.74107   6.19830  22.82034  1      844
siesta:     30.09579   5.34226  21.34447  2      845
siesta:     30.71751   3.11238  22.46696  3      846
siesta:     27.99819   6.14350  22.60491  3      847
siesta:     29.23596   4.74888  18.62704  2      848
siesta:     27.82056   3.23521  18.74420  1      849
siesta:     28.27976   6.42318  17.92217  1      850
siesta:     31.13514   3.96465  16.55779  2      851
siesta:     29.75186   3.31647  14.49609  3      852
siesta:     32.35968   6.07547  15.77544  3      853
siesta:     33.14392   1.89162  16.93762  2      854
siesta:     34.72562   2.36405  15.68095  1      855
siesta:     33.79399   1.98232  18.89538  1      856
siesta:     32.43527  45.37423  16.36315  2      857
siesta:     33.99430  43.83599  17.71808  3      858
siesta:     30.13170  44.93959  17.38927  3      859
siesta:     32.21795  44.33299  13.65706  2      860
siesta:     32.01575  42.27697  13.80634  1      861
siesta:     30.44917  45.05298  12.88416  1      862
siesta:     34.27587  44.80731  11.63505  2      863
siesta:     36.40748  45.52352  12.85959  3      864
siesta:     34.93916  42.53019  10.64672  3      865
siesta:     33.91115   0.48566   9.45619  2      866
siesta:     33.03621   2.15429  10.30279  1      867
siesta:     35.81410   1.03557   8.86282  1      868
siesta:     32.39370  46.18304   7.00711  2      869
siesta:     30.15815   1.17352   7.12427  3      870
siesta:     33.60312   1.18675   5.10982  3      871
siesta:     31.87780  43.48451   5.99799  2      872
siesta:     31.56411  43.66403   3.97410  1      873
siesta:     33.59178  42.34122   6.25500  1      874
siesta:     29.62714  41.91981   6.97120  2      875
siesta:     29.48919  42.24106   9.50533  3      876
siesta:     27.45962  43.02341   6.12838  3      877
siesta:     29.39092  39.08711   6.34381  2      878
siesta:     27.77332  38.35768   7.40017  1      879
siesta:     28.93739  38.96617   4.34259  1      880
siesta:     31.57545  37.19927   6.78979  2      881
siesta:     30.70050  34.88814   6.06602  3      882
siesta:     33.39714  37.67926   5.02856  3      883
siesta:     32.87369  36.91204   9.40895  2      884
siesta:     34.80877  37.57344   9.19919  1      885
siesta:     31.92505  38.19138  10.70152  1      886
siesta:     33.02298  34.35523  10.81869  2      887
siesta:     34.54799  34.83145  12.81424  3      888
siesta:     30.74397  33.89036  11.91662  3      889
siesta:     34.07367  31.92694   9.55446  2      890
siesta:     35.51931  32.55055   8.22976  1      891
siesta:     35.05821  30.87625  11.03412  1      892
siesta:     32.43905  30.00130   8.09370  2      893
siesta:     33.09290  30.15437   5.62005  3      894
siesta:     33.37258  27.71095   8.79479  3      895
siesta:     29.51375  29.81044   8.29590  2      896
siesta:     29.11313  28.80511  10.03445  1      897
siesta:     28.75030  31.72285   8.46598  1      898
siesta:     27.98497  28.48574   6.20964  2      899
siesta:     28.95440  26.11980   5.95264  3      900
siesta:     25.61336  28.08512   7.14317  3      901
siesta:     27.80733  29.64604   3.52812  2      902
siesta:     28.87881  31.39970   3.51678  1      903
siesta:     28.77109  28.33645   2.27334  1      904
siesta:     25.22974  30.21673   2.32436  2      905
siesta:     25.70784  30.89514  44.57866  3      906
siesta:     23.99953  27.98119   2.07303  3      907
siesta:     23.38159  32.15748   3.49410  2      908
siesta:     21.48619  31.59434   2.89695  1      909
siesta:     23.47608  31.96284   5.52934  1      910
siesta:     23.65371  34.98262   2.83081  2      911
siesta:     26.16894  35.54009   2.83270  3      912
siesta:     22.88081  35.36057   0.40629  3      913
siesta:     22.36681  37.01786   4.48243  2      914
siesta:     22.93750  36.66637   6.43641  1      915
siesta:     23.16805  38.82822   3.93819  1      916
siesta:     19.46419  37.30510   4.47676  2      917
siesta:     18.37570  34.96373   4.36149  3      918
siesta:     18.84058  38.16114   6.82191  3      919
siesta:     18.14327  39.01152   2.51145  2      920
siesta:     18.97475  38.60712   0.66140  1      921
siesta:     16.17795  38.41437   2.43586  1      922
siesta:     18.18106  41.90469   2.88750  2      923
siesta:     20.37126  42.50374   4.10260  3      924
siesta:     18.43995  43.04420   0.57826  3      925
siesta:     15.97953  43.19538   4.29346  2      926
siesta:     15.80946  42.27130   6.11894  1      927
siesta:     16.57479  45.13235   4.64873  1      928
siesta:     13.29612  43.31632   3.15962  2      929
siesta:     12.12827  41.06565   3.57158  3      930
siesta:     11.94874  44.98306   4.54668  3      931
siesta:     12.86148  43.99662   0.36661  2      932
siesta:     14.42806  45.20983  44.49740  1      933
siesta:     12.98242  42.22784  43.99095  1      934
siesta:     10.40295  45.34022  44.20638  2      935
siesta:     10.40862   1.46454   0.50645  3      936
siesta:     10.60326  45.75029  41.68171  3      937
siesta:      7.78379  44.12512  44.65803  2      938
siesta:      7.47198  42.78153  43.12357  1      939
siesta:      7.91796  43.04609   1.71020  1      940
siesta:      5.32714  45.71249   0.16063  2      941
siesta:      3.39206  44.09867  44.27252  3      942
siesta:      4.90951  46.17737   2.65129  3      943
siesta:      4.91329   1.90484  43.27475  2      944
siesta:      6.72554   2.36216  42.40736  1      945
siesta:      3.61883   1.36816  41.77241  1      946
siesta:      3.89095   4.41629  44.39535  2      947
siesta:      4.96809   4.81880   2.02579  3      948
siesta:      4.89439   6.28712  42.94026  3      949
siesta:      1.03746   5.00400  44.56732  2      950
siesta:      0.15118   3.39773   0.83526  1      951
siesta:      0.82203   6.61215   1.13951  1      952
siesta:     42.02753   5.57280  42.17681  2      953
siesta:     42.46972   3.71520  40.44960  3      954
siesta:     39.54442   5.26289  42.77775  3      955
siesta:     42.21650   8.15228  40.80298  2      956
siesta:     40.75574   9.35982  41.64013  1      957
siesta:      1.46265   8.98943  41.24896  1      958
siesta:     41.89524   8.29212  37.89847  2      959
siesta:      0.14551  10.61838  37.19549  3      960
siesta:      0.99211   6.71609  36.75897  3      961
siesta:     39.30632   7.82914  36.65881  2      962
siesta:     39.46317   6.11894  35.51931  1      963
siesta:     37.94194   7.44174  38.16681  1      964
siesta:     38.08178   9.86626  34.95995  2      965
siesta:     35.67804   9.08014  34.46862  3      966
siesta:     37.68115  11.93740  36.41882  3      967
siesta:     39.28553  10.74877  32.43716  2      968
siesta:     38.09500  12.24165  31.66237  1      969
siesta:     41.12613  11.55757  32.87558  1      970
siesta:     39.73340   8.85148  30.26020  2      971
siesta:     42.05020   7.80835  30.66460  3      972
siesta:     38.09500   6.89561  30.59846  3      973
siesta:     39.61623   9.76233  27.48230  2      974
siesta:     37.66604  10.30846  27.10624  1      975
siesta:     40.75763  11.46497  27.33490  1      976
siesta:     40.39291   8.08614  25.22029  2      977
siesta:     38.55043   8.31669  23.46474  3      978
siesta:     42.40547   9.15762  24.06567  3      979
siesta:     40.99573   5.24588  25.49053  2      980
siesta:      0.44787   5.09470  25.64737  1      981
siesta:     40.20016   4.56936  27.26498  1      982
siesta:     40.15670   3.36371  23.42127  2      983
siesta:     40.68582   1.00344  24.29433  3      984
siesta:     37.58667   3.42419  23.29655  3      985
siesta:     41.27541   3.61694  20.73597  2      986
siesta:     40.86912   5.51233  20.09347  1      987
siesta:      0.74266   3.43363  20.90038  1      988
siesta:     40.40236   1.83492  18.57413  2      989
siesta:     38.54098   0.33448  19.50954  3      990
siesta:     39.21372   3.25033  16.78644  3      991
siesta:     42.28642   0.19275  17.07179  2      992
siesta:     41.90847   0.55180  15.08380  1      993
siesta:      1.60816   0.82959  17.48753  1      994
siesta:     42.28642  43.54120  17.44407  2      995
siesta:      1.92941  42.63413  16.56157  3      996
siesta:     42.37713  43.01774  19.96496  3      997
siesta:     40.17181  41.95950  16.19874  2      998
siesta:     38.45594  43.04231  16.39905  1      999
siesta:     40.57811  41.84611  14.18807  1     1000
siesta:     39.54631  39.26475  17.09258  2     1001
siesta:     38.60712  39.47262  19.46797  3     1002
siesta:     37.53753  38.43893  15.71875  3     1003
siesta:     41.52486  37.11046  17.08691  2     1004
siesta:      0.38172  37.67926  18.43807  1     1005
siesta:     40.57433  35.45506  17.89193  1     1006
siesta:      0.27023  36.29409  14.63593  2     1007
siesta:     41.71572  37.47139  12.64794  3     1008
siesta:      2.66074  37.30510  14.66239  3     1009
siesta:      0.46487  33.44628  13.91973  2     1010
siesta:      1.61950  32.56377  15.37482  1     1011
siesta:     41.15069  32.68661  14.07658  1     1012
siesta:      1.53068  32.61669  11.34781  2     1013
siesta:      1.14328  30.08445  11.09459  3     1014
siesta:      0.03402  33.65037   9.52233  3     1015
siesta:      4.32558  33.12502  10.63916  2     1016
siesta:      4.47487  32.91337   8.60771  1     1017
siesta:      4.74510  35.09034  11.10215  1     1018
siesta:      6.45909  31.51120  11.78056  2     1019
siesta:      8.59259  32.90014  11.57458  3     1020
siesta:      6.07169  31.34490  14.32791  3     1021
siesta:      6.95986  28.83723  10.74310  2     1022
siesta:      5.24021  28.19473   9.82847  1     1023
siesta:      8.44708  28.99030   9.32013  1     1024
siesta:      7.71575  26.71885  12.61204  2     1025
siesta:      5.88083  26.50153  14.42051  3     1026
siesta:      7.57403  24.49653  11.34970  3     1027
siesta:     10.31791  26.82089  13.90839  2     1028
siesta:     11.72009  26.11603  12.58180  1     1029
siesta:     10.75255  28.80700  14.24665  1     1030
siesta:     10.77144  25.42628  16.44251  2     1031
siesta:     13.25076  25.62281  17.11715  3     1032
siesta:      9.52422  26.74153  18.26610  3     1033
siesta:     10.05335  22.63515  16.77511  2     1034
siesta:      9.66784  22.39326  18.79711  1     1035
siesta:      8.28645  22.31201  15.76221  1     1036
siesta:     11.88827  20.50165  16.00032  2     1037
siesta:     10.44452  18.38515  15.74709  3     1038
siesta:     12.69519  21.07801  13.63438  3     1039
siesta:     14.17106  19.81757  17.68595  2     1040
siesta:     14.58491  21.42761  18.89727  1     1041
siesta:     13.55123  18.22264  18.86325  1     1042
siesta:     16.72030  19.00687  16.54645  2     1043
siesta:     17.92784  17.60659  18.34547  3     1044
siesta:     16.24409  17.35525  14.63782  3     1045
siesta:     18.56090  21.02699  15.56946  2     1046
siesta:     17.45352  22.57468  14.80034  1     1047
siesta:     19.58135  21.79422  17.18329  1     1048
siesta:     20.56401  20.32779  13.54556  2     1049
siesta:     21.37848  17.91839  13.96508  3     1050
siesta:     19.38860  20.24842  11.25143  3     1051
siesta:     22.92806  21.98319  13.16384  2     1052
siesta:     23.79733  21.39360  11.36671  1     1053
siesta:     22.24209  23.90882  12.93140  1     1054
siesta:     25.03699  22.07957  15.17262  2     1055
siesta:     26.69995  23.87481  14.37326  3     1056
siesta:     24.00331  23.05467  17.30990  3     1057
siesta:     26.54499  19.68906  15.88315  2     1058
siesta:     25.18628  18.31523  16.65038  1     1059
siesta:     27.27632  18.90294  14.13705  1     1060
siesta:     28.75786  19.88749  17.77666  2     1061
siesta:     30.90081  19.56434  16.38582  3     1062
siesta:     28.95062  22.30256  18.64594  3     1063
siesta:     28.91660  18.05256  20.05756  2     1064
siesta:     28.88070  16.14205  19.29222  1     1065
siesta:     30.77420  18.32846  20.90227  1     1066
siesta:     26.94562  18.15083  22.22886  2     1067
siesta:     24.85558  19.38104  21.35202  3     1068
siesta:     26.15949  15.73954  22.62381  3     1069
siesta:     27.58434  19.23364  24.87825  2     1070
[...]
siesta:   1083   -0.703594    0.145979    0.403712
siesta:   1084    0.519921   -0.341445    0.575929
siesta:   1085    0.105697    0.281987    0.342819
siesta:   1086    1.336652   -0.394429   -0.619783
siesta:   1087   -0.373313    0.186382   -1.035485
siesta:   1088    0.255049   -0.488874    0.284887
siesta:   1089   -0.996503    0.369433    0.235090
siesta:   1090    0.200845   -0.128184    1.233416
siesta:   1091    0.272874   -1.032129    0.975396
siesta:   1092    1.754661   -0.810824   -0.220557
siesta:   1093   -0.413175    0.840603   -1.422772
siesta:   1094    0.197847    0.033489    0.462158
siesta:   1095    0.234296    0.258684   -0.380999
siesta:   1096   -1.104508    0.482708    0.131384
siesta:   1097   -0.343638   -0.258198   -0.465669
siesta:   1098   -0.925976   -1.020505    0.813965
siesta:   1099    1.080799    0.147103   -0.338925
siesta:   1100   -0.901069   -0.114561   -0.316098
siesta:   1101    0.323213   -0.477703    0.512917
siesta:   1102    0.384049    0.780593   -0.439616
siesta:   1103   -0.307840   -0.825278    0.481413
siesta:   1104    0.783354    0.702845    1.086855
siesta:   1105   -0.441471    0.701132   -1.151299
siesta:   1106    1.101339   -0.152853    0.670894
siesta:   1107   -0.870416   -0.291490   -0.817420
siesta:   1108    0.195342   -0.916698    0.134125
siesta:   1109    0.613665    0.428512    0.342526
siesta:   1110   -0.523812    1.360678   -0.404557
siesta:   1111   -0.811564   -0.866252   -0.192889
siesta:   1112    0.450895    0.673206   -0.797952
siesta:   1113   -0.371847   -0.646314    0.591000
siesta:   1114    1.209544    0.067354    0.029037
siesta:   1115    0.156769    0.224669   -0.213923
siesta:   1116   -1.890018    0.050009    0.115576
siesta:   1117    1.011467   -0.299445    1.249574
siesta:   1118    0.301473    0.098437   -0.443126
siesta:   1119    0.625616    0.265179   -0.609886
siesta:   1120   -0.829097    0.147298   -0.611415
siesta:   1121   -0.701751   -0.395145    0.103690
siesta:   1122   -0.692953   -0.187516    1.138130
siesta:   1123    1.160730    0.098846   -0.079767
siesta:   1124   -0.594823   -0.941764    0.267118
siesta:   1125    0.443610    0.100306    0.406385
siesta:   1126    0.347135    0.564559   -0.871355
siesta:   1127   -0.500024   -0.639830    0.021292
siesta:   1128    0.357644    1.230949    0.902314
siesta:   1129   -0.482520   -0.012376   -1.193834
siesta:   1130    0.435572    0.126944    0.531402
siesta:   1131   -0.433952   -0.744963   -0.431071
siesta:   1132    0.485967   -0.406770    0.627472
siesta:   1133    0.305148    1.150060   -0.247859
siesta:   1134   -0.103391    0.483818   -0.736131
siesta:   1135   -1.254635   -1.569836    0.215091
siesta:   1136    0.481027   -0.413510    0.003797
siesta:   1137    0.154813   -0.136476    0.484150
siesta:   1138    0.349175    0.609729    0.078081
siesta:   1139   -0.277915   -0.190339    0.343363
siesta:   1140    0.413622    0.527096    0.813066
siesta:   1141   -0.250956    0.050637   -1.228796
siesta:   1142    0.321395   -0.442762    0.037900
siesta:   1143   -0.807500    0.584780   -0.304825
siesta:   1144   -0.356376   -0.315305   -0.272905
siesta:   1145    0.084444    0.240542   -0.870606
siesta:   1146   -0.160581   -2.061313   -0.211122
siesta:   1147    1.016510    1.173546    0.930665
siesta:   1148   -0.801105    0.072547    0.209053
siesta:   1149    0.244596   -0.436777    0.420164
siesta:   1150    0.015092    0.829934    0.406945
siesta:   1151   -0.121837   -0.313249   -0.101042
siesta:   1152   -0.024369    1.436329   -0.952274
siesta:   1153   -0.197602   -1.214417   -0.782742
siesta:   1154    0.658152    0.065112   -0.293142
siesta:   1155    0.087347   -0.645629    0.672434
siesta:   1156   -0.096880    0.304090    0.670595
siesta:   1157   -0.111392    0.082599   -1.017160
siesta:   1158   -0.958234   -0.730609    1.770529
siesta:   1159    0.045384    1.187703   -0.625945
siesta:   1160    0.632729    1.085465   -0.056944
siesta:   1161    0.355672    0.011261   -0.410147
siesta:   1162   -0.049912   -0.987583   -0.254772
siesta:   1163   -0.553761    0.600570    0.906448
siesta:   1164   -0.053429   -0.318671   -1.777056
siesta:   1165   -0.311933   -0.867755    1.224889
siesta:   1166    0.438751   -0.106989   -0.663139
siesta:   1167    0.172284    0.329180    0.890030
siesta:   1168    0.245769    0.675868   -0.681135
siesta:   1169    0.291904   -0.185708   -0.499357
siesta:   1170   -0.383261   -1.143454    0.516019
siesta:   1171    0.119697    1.518021    0.155503
siesta:   1172    0.285197   -0.376848   -0.473024
siesta:   1173    0.176012   -0.682133   -0.289498
siesta:   1174   -0.679966    0.060145    0.362954
siesta:   1175   -0.468730    0.000229    0.196920
siesta:   1176   -0.672404    1.438433    0.391792
siesta:   1177    1.785719   -0.116079   -0.450007
siesta:   1178   -0.114970    0.082637    0.585697
siesta:   1179    0.725358    0.085695   -0.657229
siesta:   1180   -0.159952   -0.739471   -0.046833
siesta:   1181    0.780408    0.200379   -0.292329
siesta:   1182   -0.212291   -0.584863   -0.919943
siesta:   1183   -0.766088    0.336541    1.282741
siesta:   1184    0.720992    0.270317   -0.476292
siesta:   1185   -0.826357   -0.006717   -0.092711
siesta:   1186    0.004470    0.488744    0.743001
siesta:   1187   -0.915842   -0.429712   -0.035407
siesta:   1188    1.204209    0.290353    0.616385
siesta:   1189   -0.126980   -0.771501   -0.835411
siesta:   1190   -0.134136   -0.258660    0.294651
siesta:   1191    0.133847    0.518289    0.101130
siesta:   1192    1.110136   -0.006498   -0.322855
siesta:   1193    0.171512    0.248453    0.279620
siesta:   1194   -0.243851   -1.384522   -0.405719
siesta:   1195   -0.962962    1.475784    0.592721
siesta:   1196    0.737977    0.017417   -0.449413
siesta:   1197    0.416834   -0.386809   -0.268689
siesta:   1198   -0.793529   -0.252240   -0.355550
siesta:   1199    0.137646   -0.929760    0.479702
siesta:   1200   -1.308558    0.825228    0.261512
siesta:   1201    1.572355   -0.109466    0.940675
siesta:   1202   -0.213149   -0.004164   -1.013414
siesta:   1203   -0.238916    0.457137   -0.227628
siesta:   1204    0.388868    0.445614    0.185643
siesta:   1205    0.174878   -0.490005   -0.473205
siesta:   1206    1.258792   -1.116996    0.898177
siesta:   1207   -1.375405   -0.596711   -0.362290
siesta:   1208   -0.028631    0.288339   -0.304210
siesta:   1209   -0.392691    0.852173   -0.378067
siesta:   1210    1.087789    0.455956    0.248838
siesta:   1211    0.286590   -0.129773    0.710535
siesta:   1212    0.929666   -1.020863    0.627665
siesta:   1213   -1.312228   -0.179698   -0.556007
siesta:   1214   -0.127743   -0.432926    0.669746
siesta:   1215   -0.595504   -0.408130   -0.636083
siesta:   1216   -0.182921    0.793386   -0.518404
siesta:   1217    0.431787    0.016305   -0.060813
siesta:   1218    0.315867    0.924386   -1.071907
siesta:   1219    0.624135    0.305912    1.917253
siesta:   1220   -0.356256    0.375061    0.146366
siesta:   1221    0.074662   -0.760252    0.299630
siesta:   1222   -0.042067    0.110744   -0.888681
siesta:   1223   -0.261719    1.031145    0.480133
siesta:   1224    0.193016   -0.498300    1.521617
siesta:   1225    0.529013   -0.987092   -1.428667
siesta:   1226   -0.300211   -0.364446    0.219896
siesta:   1227   -0.342965    0.714883   -0.825405
siesta:   1228   -0.168544    0.132502    0.822478
siesta:   1229   -0.413761   -0.834704    0.200162
siesta:   1230    0.173052   -0.427267   -0.897917
siesta:   1231    0.359026    1.696031    0.401379
siesta:   1232    0.097378    0.287704    0.334712
siesta:   1233   -0.135851   -0.568024    0.171668
siesta:   1234    0.510504   -0.100884   -0.556573
siesta:   1235    0.368400    0.428099   -1.152751
siesta:   1236   -1.406078    0.538513    1.049013
siesta:   1237    0.605326   -0.819160   -0.040555
siesta:   1238    0.175882    0.188115   -0.163975
siesta:   1239   -0.268795    0.588553   -0.098645
siesta:   1240    0.006252   -0.201217    0.800329
siesta:   1241   -0.644021    0.520008    0.428815
siesta:   1242    0.756752   -1.541238   -0.580936
siesta:   1243   -0.394089    0.778177   -0.812812
siesta:   1244   -1.169890    0.579521    0.350508
siesta:   1245    0.706390   -0.786911    0.716029
siesta:   1246    0.511620    0.102263   -0.606129
siesta:   1247    0.136190   -0.857228   -0.858698
siesta:   1248    0.624104   -0.191877    0.458179
siesta:   1249   -0.560807    0.476178   -0.427827
siesta:   1250   -0.650855    0.217454    0.619877
siesta:   1251    0.190439    0.162451    0.674788
siesta:   1252   -1.208499   -0.070897    0.500374
siesta:   1253    0.448514   -0.092865    0.720185
siesta:   1254   -0.945249   -0.983200    0.564911
siesta:   1255   -0.359612    0.459715    0.535068
siesta:   1256    0.417889   -0.556744    0.710903
siesta:   1257    0.048656    0.545720    0.712173
siesta:   1258   -0.085870   -0.357041   -0.661427
siesta:   1259    0.123157    0.704239   -0.975746
siesta:   1260   -0.115958    0.158072   -0.494045
siesta:   1261    0.261002    0.171275   -0.643415
siesta:   1262   -0.728290   -0.317384   -0.636943
siesta:   1263    0.484494   -0.208352   -0.814908
siesta:   1264   -0.185301   -0.005855    0.331160
siesta:   1265    0.312885   -0.057047    0.415758
siesta:   1266   -0.011493    0.459505    0.674335
siesta:   1267    0.187289   -1.093449    0.532825
siesta:   1268    1.146817    0.115814    0.955733
siesta:   1269   -0.622428    0.536915    0.617103
siesta:   1270   -0.596673    0.299078   -0.258775
siesta:   1271    0.239545    0.086929   -0.007120
siesta:   1272   -0.318247   -0.449663   -0.305798
siesta:   1273   -0.423153    0.382266   -0.072927
siesta:   1274    0.138273   -0.423611    0.022872
siesta:   1275    0.188017    0.450617   -0.050145
siesta:   1276   -0.015598    0.103863   -0.037649
siesta:   1277   -0.185627   -0.476371   -0.276192
siesta:   1278    0.351933    1.391210   -0.679265
siesta:   1279   -0.357621    0.214640   -0.495745
siesta:   1280    0.098752    0.262987   -0.178148
siesta:   1281   -0.568553   -0.849462   -0.586492
siesta:   1282    0.793712   -0.472501   -0.561386
siesta: ----------------------------------------
siesta:    Tot    0.057811    0.039834    0.129516

siesta: Stress tensor (static) (eV/Ang**3):
siesta:     0.001507   -0.003510   -0.001355
siesta:    -0.003510   -0.000642   -0.000505
siesta:    -0.001355   -0.000505   -0.001572

siesta: Cell volume =      13041.289483 Ang**3

siesta: Pressure (static):
siesta:                Solid            Molecule  Units
siesta:           0.00000256          0.00004565  Ry/Bohr**3
siesta:           0.00023551          0.00419134  eV/Ang**3
siesta:           0.37732919          6.71533698  kBar
(Free)E+ p_basis*V_orbitals  =     -374629.786465
(Free)Eharris+ p_basis*V_orbitals  =     -374629.721245

Optical: Performing optical calculation: 

Optical: Polarization type       = polarized   
Optical: Minimum of energy range =   0.0001 Ry 
Optical: Maximum of energy range =   7.3498 Ry 
Optical: Gaussian broadening     =   0.0037 Ry 
Optical: Scissor operator        =   0.0000 Ry 
Optical: Number of bands         =    13386
Optical: Number of electrons     =     5346
Optical: BZ mesh dimensions      =    1   1   1

Optical: electric field direction
Optical:      0.00000     1.00000     0.00000

Optical: Checking f-sum rule  0.879942
Optical: For insulators and closed shell systems
Optical: this number should be close to 1 if an enough
Optical: number of unoccupied bands have been included

* Maximum dynamic memory allocated : Node    0 =   304 MB
* Maximum dynamic memory allocated : Node    1 =   307 MB
* Maximum dynamic memory allocated : Node    2 =   301 MB
* Maximum dynamic memory allocated : Node    3 =   308 MB
* Maximum dynamic memory allocated : Node    4 =   306 MB
* Maximum dynamic memory allocated : Node    5 =   307 MB
* Maximum dynamic memory allocated : Node    6 =   305 MB
* Maximum dynamic memory allocated : Node    7 =   303 MB
* Maximum dynamic memory allocated : Node    8 =   303 MB
* Maximum dynamic memory allocated : Node    9 =   304 MB
* Maximum dynamic memory allocated : Node   10 =   307 MB
* Maximum dynamic memory allocated : Node   11 =   308 MB
* Maximum dynamic memory allocated : Node   12 =   309 MB
* Maximum dynamic memory allocated : Node   13 =   308 MB
* Maximum dynamic memory allocated : Node   14 =   305 MB
* Maximum dynamic memory allocated : Node   15 =   302 MB
* Maximum dynamic memory allocated : Node   16 =   305 MB
* Maximum dynamic memory allocated : Node   17 =   305 MB
* Maximum dynamic memory allocated : Node   18 =   308 MB
* Maximum dynamic memory allocated : Node   19 =   303 MB
* Maximum dynamic memory allocated : Node   20 =   305 MB
* Maximum dynamic memory allocated : Node   21 =   305 MB
* Maximum dynamic memory allocated : Node   22 =   302 MB
* Maximum dynamic memory allocated : Node   23 =   305 MB
* Maximum dynamic memory allocated : Node   24 =   306 MB
* Maximum dynamic memory allocated : Node   25 =   307 MB
* Maximum dynamic memory allocated : Node   26 =   312 MB
* Maximum dynamic memory allocated : Node   27 =   308 MB
* Maximum dynamic memory allocated : Node   28 =   311 MB
* Maximum dynamic memory allocated : Node   29 =   307 MB
* Maximum dynamic memory allocated : Node   30 =   311 MB
* Maximum dynamic memory allocated : Node   31 =   305 MB
* Maximum dynamic memory allocated : Node   32 =   307 MB
* Maximum dynamic memory allocated : Node   33 =   304 MB
* Maximum dynamic memory allocated : Node   34 =   307 MB
* Maximum dynamic memory allocated : Node   35 =   308 MB
* Maximum dynamic memory allocated : Node   36 =   307 MB
* Maximum dynamic memory allocated : Node   37 =   307 MB
* Maximum dynamic memory allocated : Node   38 =   306 MB
* Maximum dynamic memory allocated : Node   39 =   305 MB
* Maximum dynamic memory allocated : Node   40 =   309 MB
* Maximum dynamic memory allocated : Node   41 =   306 MB
* Maximum dynamic memory allocated : Node   42 =   306 MB
* Maximum dynamic memory allocated : Node   43 =   310 MB
* Maximum dynamic memory allocated : Node   44 =   305 MB
* Maximum dynamic memory allocated : Node   45 =   302 MB
* Maximum dynamic memory allocated : Node   46 =   293 MB
* Maximum dynamic memory allocated : Node   47 =   292 MB
* Maximum dynamic memory allocated : Node   48 =   294 MB
* Maximum dynamic memory allocated : Node   49 =   292 MB
* Maximum dynamic memory allocated : Node   50 =   293 MB
* Maximum dynamic memory allocated : Node   51 =   295 MB
* Maximum dynamic memory allocated : Node   52 =   292 MB
* Maximum dynamic memory allocated : Node   53 =   293 MB
* Maximum dynamic memory allocated : Node   54 =   296 MB
* Maximum dynamic memory allocated : Node   55 =   291 MB
* Maximum dynamic memory allocated : Node   56 =   295 MB
* Maximum dynamic memory allocated : Node   57 =   295 MB
* Maximum dynamic memory allocated : Node   58 =   293 MB
* Maximum dynamic memory allocated : Node   59 =   294 MB
* Maximum dynamic memory allocated : Node   60 =   295 MB
* Maximum dynamic memory allocated : Node   61 =   292 MB
* Maximum dynamic memory allocated : Node   62 =   292 MB
* Maximum dynamic memory allocated : Node   63 =   293 MB

* Maximum memory occured during rdiag                         

timer: CPU execution times:
timer:  Routine       Calls   Time/call    Tot.time        %
timer:  siesta            117931186.31717931186.317   100.00
timer:  Setup             1      92.094      92.094     0.00
timer:  bands             1       0.010       0.010     0.00
timer:  writewave         1       0.052       0.052     0.00
timer:  KSV_init          1       0.008       0.008     0.00
timer:  IterMD            1  199371.975  199371.975     1.11
timer:  hsparse           1      34.062      34.062     0.00
timer:  overlap           1      96.695      96.695     0.00
timer:  IterSCF          25    7871.074  196776.848     1.10
timer:  kinefsm           2      50.074     100.149     0.00
timer:  nlefsm            2     224.502     449.005     0.00
timer:  DHSCF            26    1011.613   26301.929     0.15
timer:  DHSCF1            1      43.823      43.823     0.00
timer:  DHSCF2            1    1020.727    1020.727     0.01
timer:  REORD           158       0.098      15.418     0.00
timer:  POISON           27      26.937     727.305     0.00
timer:  DHSCF3           26     950.573   24714.886     0.14
timer:  rhoofd           26     373.244    9704.350     0.05
timer:  cellXC           26      71.773    1866.087     0.01
timer:  vmat             26     396.727   10314.908     0.06
timer:  MolMec            2       0.111       0.222     0.00
timer:  diagon           25    5837.762  145944.049     0.81
timer:  r-eigvec         25    5651.741  141293.536     0.79
timer:  r-buildHS        25       1.434      35.858     0.00
timer:  rdiag            26    5652.975  146977.345     0.82
timer:  rdiag1           26     184.716    4802.612     0.03
timer:  rdiag2           26    1089.816   28335.227     0.16
timer:  rdiag3           26    3944.368  102553.564     0.57
timer:  rdiag4           26     407.750   10601.488     0.06
timer:  r-buildD         25     185.457    4636.429     0.03
timer:  DHSCF4            1     515.631     515.631     0.00
timer:  dfscf             1     456.179     456.179     0.00
timer:  overfsm           1       5.061       5.061     0.00
timer:  optical           117731654.94817731654.948    98.89
timer:  phirphiopt        1    1498.996    1498.996     0.01
timer:  transrate         117724108.34817724108.348    98.85
  

elaps: ELAPSED times:
elaps:  Routine       Calls   Time/call    Tot.time        %
elaps:  siesta            1   66124.969   66124.969   100.00
elaps:  Setup             1       1.456       1.456     0.00
elaps:  bands             1       0.000       0.000     0.00
elaps:  writewave         1       0.001       0.001     0.00
elaps:  KSV_init          1       0.000       0.000     0.00
elaps:  IterMD            1    3141.299    3141.299     4.75
elaps:  hsparse           1       0.552       0.552     0.00
elaps:  overlap           1       1.176       1.176     0.00
elaps:  IterSCF          25     123.920    3097.996     4.69
elaps:  kinefsm           2       0.625       1.249     0.00
elaps:  nlefsm            2       3.608       7.216     0.01
elaps:  DHSCF            26      15.836     411.739     0.62
elaps:  DHSCF1            1       0.689       0.689     0.00
elaps:  DHSCF2            1      15.995      15.995     0.02
elaps:  REORD           158       0.002       0.237     0.00
elaps:  POISON           27       0.413      11.159     0.02
elaps:  DHSCF3           26      14.888     387.083     0.59
elaps:  rhoofd           26       5.532     143.840     0.22
elaps:  cellXC           26       1.128      29.327     0.04
elaps:  vmat             26       6.211     161.485     0.24
elaps:  MolMec            2       0.002       0.004     0.00
elaps:  diagon           25      92.090    2302.255     3.48
elaps:  r-eigvec         25      89.167    2229.179     3.37
elaps:  r-buildHS        25       0.017       0.430     0.00
elaps:  rdiag            26      89.154    2318.017     3.51
elaps:  rdiag1           26       2.937      76.353     0.12
elaps:  rdiag2           26      17.358     451.310     0.68
elaps:  rdiag3           26      62.089    1614.323     2.44
elaps:  rdiag4           26       6.393     166.220     0.25
elaps:  r-buildD         25       2.914      72.859     0.11
elaps:  DHSCF4            1       7.866       7.866     0.01
elaps:  dfscf             1       6.886       6.886     0.01
elaps:  overfsm           1       0.084       0.084     0.00
elaps:  optical           1   62981.532   62981.532    95.25
elaps:  phirphiopt        1      24.329      24.329     0.04
elaps:  transrate         1   62862.339   62862.339    95.07
  
>> End of run:   2-NOV-2014   6:24:58
