Siesta Version:                                        siesta-3.1
Architecture  : x86_64-unknown-linux-gnu--Intel
Compiler flags: mpif90 -O3 -xSSSE3 -axSSE4.2,SSE4.1 -ip
PARALLEL version
NetCDF support

* Running on   64 nodes in parallel
>> Start of run:  10-MAY-2012  18:03:16

                           ***********************       
                           *  WELCOME TO SIESTA  *       
                           ***********************       

reinit: Reading from standard input
************************** Dump of input data file ****************************
SystemName      optical
SystemLabel     optical
NumberOfAtoms   32
NumberOfSpecies 1
MD.TypeOfRun    CG
MD.NumCGsteps   0
MD.ConstantVolume  .true.
SolutionMethod  diagon
XC.functional   GGA
XC.authors      PBE
PAO.BasisSize   DZP
DM.NumberPulay  7
DM.MixingWeight 0.1
DirectPhi       .true.
SaveMemory      .true.
MeshCutoff      500 Ry
MaxSCFiterations 200
UseSaveData     .true.
WriteMullikenPop 1
OpticalCalculation      .true.
%block Optical.Mesh
 1 1 1
%endblock Optical.Mesh
Optical.PolarizationType  polarized
%block Optical.Vector
 0.0 1.0 0.0
%endblock Optical.Vector
Optical.Broaden         0.05 eV
Optical.EnergyMinimum   0.001 eV
Optical.EnergyMaximum   100.0 eV
%block ChemicalSpeciesLabel
 1  47   Ag
%endblock ChemicalSpeciesLabel
LatticeConstant 1.0 Ang
%block LatticeParameters
  22.534   24.472   23.649   90.0 90.0 90.0
%endblock LatticeParameters
AtomicCoordinatesFormat Ang
%block AtomicCoordinatesAndAtomicSpecies < struct.coor
%endblock AtomicCoordinatesAndAtomicSpecies
************************** End of input data file *****************************

reinit: -----------------------------------------------------------------------
reinit: System Name: optical
reinit: -----------------------------------------------------------------------
reinit: System Label: optical                                                     
reinit: -----------------------------------------------------------------------

initatom: Reading input for the pseudopotentials and atomic orbitals ----------
 Species number:            1  Label: Ag Atomic number:          47
Ground state valence configuration:   5s01  4d10
Reading pseudopotential information in formatted form from Ag.psf

Valence configuration for pseudopotential generation:
5s( 1.00) rc: 2.52
5p( 0.00) rc: 2.72
4d(10.00) rc: 2.52
4f( 0.00) rc: 2.52
For Ag, standard SIESTA heuristics set lmxkb to 3
 (one more than the basis l, including polarization orbitals).
Use PS.lmax or PS.KBprojectors blocks to override.

<basis_specs>
===============================================================================
Ag                   Z=  47    Mass=  107.87        Charge= 0.17977+309
Lmxo=2 Lmxkb= 3    BasisType=split      Semic=F
L=0  Nsemic=0  Cnfigmx=5
          n=1  nzeta=2  polorb=1
            splnorm:   0.15000    
               vcte:    0.0000    
               rinn:    0.0000    
                rcs:    0.0000      0.0000    
            lambdas:    1.0000      1.0000    
L=1  Nsemic=0  Cnfigmx=5
L=2  Nsemic=0  Cnfigmx=4
          n=1  nzeta=2  polorb=0
            splnorm:   0.15000    
               vcte:    0.0000    
               rinn:    0.0000    
                rcs:    0.0000      0.0000    
            lambdas:    1.0000      1.0000    
-------------------------------------------------------------------------------
L=0  Nkbl=1  erefs: 0.17977+309
L=1  Nkbl=1  erefs: 0.17977+309
L=2  Nkbl=1  erefs: 0.17977+309
L=3  Nkbl=1  erefs: 0.17977+309
===============================================================================
</basis_specs>

atom: Called for Ag                    (Z =  47)

read_vps: Pseudopotential generation method:
read_vps: ATM 3.2.2 Troullier-Martins                       
Total valence charge:   11.00000

xc_check: Exchange-correlation functional:
xc_check: GGA Perdew, Burke & Ernzerhof 1996
V l=0 = -2*Zval/r beyond r=  2.4592
V l=1 = -2*Zval/r beyond r=  2.6507
V l=2 = -2*Zval/r beyond r=  2.4592
V l=3 = -2*Zval/r beyond r=  2.4592
All V_l potentials equal beyond r=  2.6507
This should be close to max(r_c) in ps generation
All pots = -2*Zval/r beyond r=  2.6507

VLOCAL1: 99.0% of the norm of Vloc inside      6.178 Ry
VLOCAL1: 99.9% of the norm of Vloc inside     14.079 Ry
atom: Maximum radius for 4*pi*r*r*local-pseudopot. charge    3.19739
atom: Maximum radius for r*vlocal+2*Zval:    2.82168
GHOST: No ghost state for L =  0
GHOST: No ghost state for L =  1
GHOST: No ghost state for L =  2
GHOST: No ghost state for L =  3

KBgen: Kleinman-Bylander projectors: 
   l= 0   rc=  2.966357   el= -0.323666   Ekb=  3.565490   kbcos=  0.247453
   l= 1   rc=  3.003670   el= -0.054265   Ekb=  1.619308   kbcos=  0.223076
   l= 2   rc=  2.786631   el= -0.547066   Ekb= -7.840816   kbcos= -0.714112
   l= 3   rc=  3.079709   el=  0.002953   Ekb= -2.732950   kbcos= -0.012571

KBgen: Total number of  Kleinman-Bylander projectors:   16
atom: -------------------------------------------------------------------------

atom: SANKEY-TYPE ORBITALS:
atom: Selected multiple-zeta basis: split     

SPLIT: Orbitals with angular momentum L= 0

SPLIT: Basis orbitals for state 5s

SPLIT: PAO cut-off radius determined from an
SPLIT: energy shift=  0.020000 Ry

   izeta = 1
                 lambda =    1.000000
                     rc =    6.684855
                 energy =   -0.305483
                kinetic =    0.327133
    potential(screened) =   -0.632616
       potential(ionic) =   -8.088030

   izeta = 2
                 rmatch =    6.279837
              splitnorm =    0.150000
                 energy =   -0.253539
                kinetic =    0.499634
    potential(screened) =   -0.753173
       potential(ionic) =   -8.691029

SPLIT: Orbitals with angular momentum L= 2

SPLIT: Basis orbitals for state 4d

SPLIT: PAO cut-off radius determined from an
SPLIT: energy shift=  0.020000 Ry

   izeta = 1
                 lambda =    1.000000
                     rc =    3.954440
                 energy =   -0.527442
                kinetic =    6.210364
    potential(screened) =   -6.737807
       potential(ionic) =  -18.733043

   izeta = 2
                 rmatch =    2.490121
              splitnorm =    0.150000
                 energy =   -0.148928
                kinetic =    8.576261
    potential(screened) =   -8.725189
       potential(ionic) =  -21.658221

POLgen: Perturbative polarization orbital with L=  1

POLgen: Polarization orbital for state 5s

   izeta = 1
                     rc =    6.684855
                 energy =   -0.001728
                kinetic =    0.597115
    potential(screened) =   -0.598843
       potential(ionic) =   -7.554613
atom: Total number of Sankey-type orbitals: 15

atm_pop: Valence configuration (for local Pseudopot. screening):
 5s( 1.00)                                                            
 5p( 0.00)                                                            
 4d(10.00)                                                            
Vna: chval, zval:   11.00000  11.00000

Vna:  Cut-off radius for the neutral-atom potential:   6.684855

atom: _________________________________________________________________________

prinput: Basis input ----------------------------------------------------------

PAO.BasisType split     

%block ChemicalSpeciesLabel
    1   47 Ag                      # Species index, atomic number, species label
%endblock ChemicalSpeciesLabel

%block PAO.Basis                 # Define Basis set
Ag                    2                    # Species label, number of l-shells
 n=5   0   2 P   1                   # n, l, Nzeta, Polarization, NzetaPol
   6.685      6.280   
   1.000      1.000   
 n=4   2   2                         # n, l, Nzeta 
   3.954      2.490   
   1.000      1.000   
%endblock PAO.Basis

prinput: ----------------------------------------------------------------------

Dumping basis to NetCDF file Ag.ion.nc
coor:   Atomic-coordinates input format  =     Cartesian coordinates
coor:                                          (in Angstroms)

siesta: WARNING: XV file not found

siesta: Atomic coordinates (Bohr) and species
siesta:     18.97286  36.77409  26.77743  1        1
siesta:     24.43228  36.77409  26.77743  1        2
siesta:     13.51344  36.77409  26.77743  1        3
siesta:     21.70351  41.50218  26.77743  1        4
siesta:     21.70351  32.04599  26.77743  1        5
siesta:     16.24220  41.50218  26.77743  1        6
siesta:     16.24220  32.04599  26.77743  1        7
siesta:     18.97286  39.92615  31.23530  1        8
siesta:     18.97286  30.46996  31.23530  1        9
siesta:     21.70351  35.19805  31.23530  1       10
siesta:     16.24220  35.19805  31.23530  1       11
siesta:     24.43228  39.92615  31.23530  1       12
siesta:     13.51344  39.92615  31.23530  1       13
siesta:     21.70351  17.56312  24.35480  1       14
siesta:     16.24220  17.56312  24.35480  1       15
siesta:     18.97286  12.83502  24.35480  1       16
siesta:     18.97286  22.29122  24.35480  1       17
siesta:     13.51344  12.83502  24.35480  1       18
siesta:     24.43228  12.83502  24.35480  1       19
siesta:     24.43228  15.98709  28.81267  1       20
siesta:     13.51344  15.98709  28.81267  1       21
siesta:     21.70351  20.71519  28.81267  1       22
siesta:     21.70351  11.25899  28.81267  1       23
siesta:     16.24220  20.71519  28.81267  1       24
siesta:     16.24220  11.25899  28.81267  1       25
siesta:     18.97286  15.98709  28.81267  1       26
siesta:     18.97286  19.13915  33.27053  1       27
siesta:     18.97286   9.68296  33.27053  1       28
siesta:     21.70351  14.41106  33.27053  1       29
siesta:     16.24220  14.41106  33.27053  1       30
siesta:     24.43228  19.13915  33.27053  1       31
siesta:     13.51344  19.13915  33.27053  1       32

siesta: System type = molecule  

initatomlists: Number of atoms, orbitals, and projectors:     32   480   512

siesta: ******************** Simulation parameters ****************************
siesta:
siesta: The following are some of the parameters of the simulation.
siesta: A complete list of the parameters used, including default values,
siesta: can be found in file out.fdf
siesta:
redata: Non-Collinear-spin run           =     F
redata: SpinPolarized (Up/Down) run      =     F
redata: Number of spin components        =     1
redata: Long output                      =     F
redata: Number of Atomic Species         =        1
redata: Charge density info will appear in .RHO file
redata: Write Mulliken Pop.              =     Atomic and Orbital charges
redata: Mesh Cutoff                      =   500.0000  Ry
redata: Net charge of the system         =     0.0000 |e|
redata: Max. number of SCF Iter          =      200
redata: Performing Pulay mixing using    =     7 iterations
redata: Mix DM in first SCF step ?       =     F
redata: Write Pulay info on disk?        =     F
redata: Discard 1st Pulay DM after  kick =     F
redata: New DM Mixing Weight             =     0.1000
redata: New DM Occupancy tolerance       = 0.000000000001
redata: No kicks to SCF
redata: DM Mixing Weight for Kicks       =     0.5000
redata: DM Tolerance for SCF             =     0.000100
redata: Require Energy convergence for SCF =     F
redata: DM Energy tolerance for SCF      =     0.000100 eV
redata: Require Harris convergence for SCF =     F
redata: DM Harris energy tolerance for SCF =     0.000100 eV
redata: Using Saved Data (generic)   =     T
redata: Use continuation files for DM    =     T
redata: Neglect nonoverlap interactions  =     F
redata: Method of Calculation            =     Diagonalization
redata: Divide and Conquer               =     T
redata: Electronic Temperature           =     0.0019  Ry
redata: Fix the spin of the system       =     F
redata: Dynamics option                  =     CG coord. optimization
redata: Variable cell                    =     F
redata: Use continuation files for CG    =     T
redata: Max atomic displ per move        =     0.2000  Bohr
redata: Maximum number of CG moves       =        0
redata: Force tolerance                  =     0.0016  Ry/Bohr
redata: ***********************************************************************
Total number of electrons:   352.000000
Total ionic charge:   352.000000

* ProcessorY, Blocksize:    8   8

 Kpoints in:            1 . Kpoints trimmed:            1

siesta: k-grid: Number of k-points =     1
siesta: k-grid: Cutoff (effective) =    11.267 Ang
siesta: k-grid: Supercell and displacements
siesta: k-grid:    1   0   0      0.000
siesta: k-grid:    0   1   0      0.000
siesta: k-grid:    0   0   1      0.000

* Maximum dynamic memory allocated =     1 MB

siesta:                 ==============================
                            Begin CG move =      0
                        ==============================

outcell: Unit cell vectors (Ang):
       22.534000    0.000000    0.000000
        0.000000   24.472000    0.000000
        0.000000    0.000000   23.649000

outcell: Cell vector modules (Ang)   :   22.534000   24.472000   23.649000
outcell: Cell angles (23,13,12) (deg):     90.0000     90.0000     90.0000
outcell: Cell volume (Ang**3)        :  13041.2895
New_DM. Step:     1
Initializing Density Matrix...

InitMesh: MESH =   320 x   360 x   320 =    36864000
InitMesh: Mesh cutoff (required, used) =   500.000   506.030 Ry

* Maximum dynamic memory allocated =    79 MB

stepf: Fermi-Dirac step function

siesta: Program's energy decomposition (eV):
siesta: Ebs     =     -1317.612259
siesta: Eions   =     35531.607510
siesta: Ena     =       314.489205
siesta: Ekin    =     27181.985408
siesta: Enl     =    -18115.277726
siesta: DEna    =        -0.000262
siesta: DUscf   =         0.000000
siesta: DUext   =         0.000000
siesta: Exc     =     -5190.372462
siesta: eta*DQ  =         0.000000
siesta: Emadel  =         0.000000
siesta: Emeta   =         0.000000
siesta: Emolmec =         0.000000
siesta: Ekinion =         0.000000
siesta: Eharris =    -31462.739765
siesta: Etot    =    -31340.783348
siesta: FreeEng =    -31340.783348

siesta: iscf   Eharris(eV)      E_KS(eV)   FreeEng(eV)   dDmax  Ef(eV)
siesta:    1   -31462.7398   -31340.7833   -31340.7833  0.6924 -1.5557
timer: Routine,Calls,Time,% = IterSCF        1     757.880  89.61
elaps: Routine,Calls,Wall,% = IterSCF        1      11.852  89.99
siesta:    2   -31494.0143   -31378.1169   -31378.1524  0.8606 -4.8325
siesta:    3   -31431.3169   -31384.3328   -31384.4106  0.5059 -3.4245
siesta:    4   -31429.5674   -31386.7115   -31386.7125  0.4331 -3.2721
siesta:    5   -31428.3516   -31396.6113   -31396.6657  0.2852 -2.9287
siesta:    6   -31429.4260   -31419.3157   -31419.3602  0.1160 -2.6961
siesta:    7   -31428.9408   -31422.7908   -31422.7994  0.1009 -2.6919
siesta:    8   -31428.9648   -31425.2948   -31425.2952  0.1985 -2.7176
siesta:    9   -31428.5148   -31425.1930   -31425.3335  0.1288 -2.7293
siesta:   10   -31428.2727   -31426.4064   -31426.5515  0.0664 -2.7868
siesta:   11   -31428.2450   -31426.4936   -31426.5516  0.0222 -2.7879
siesta:   12   -31428.2465   -31426.7676   -31426.8262  0.0630 -2.8015
siesta:   13   -31427.8868   -31427.2429   -31427.2978  1.0672 -2.8046
siesta:   14   -31428.2176   -31427.0540   -31427.1060  0.0150 -2.8024
siesta:   15   -31428.2113   -31427.1534   -31427.2073  0.0084 -2.8011
siesta:   16   -31428.2113   -31427.2703   -31427.3283  0.0060 -2.7990
siesta:   17   -31428.2109   -31427.5844   -31427.6421  0.0078 -2.7969
siesta:   18   -31428.2113   -31428.0806   -31428.1389  0.0017 -2.7969
siesta:   19   -31428.2113   -31428.1077   -31428.1653  0.0022 -2.7972
siesta:   20   -31428.2115   -31428.1578   -31428.2155  0.0010 -2.7960
siesta:   21   -31428.2115   -31428.1925   -31428.2499  0.0008 -2.7959
siesta:   22   -31428.2116   -31428.2002   -31428.2576  0.0005 -2.7958
siesta:   23   -31428.2116   -31428.2057   -31428.2630  0.0003 -2.7959
siesta:   24   -31428.2116   -31428.2096   -31428.2669  0.0002 -2.7960
siesta:   25   -31428.2115   -31428.2110   -31428.2684  0.0002 -2.7960
siesta:   26   -31428.2116   -31428.2115   -31428.2689  0.0001 -2.7960
siesta:   27   -31428.2115   -31428.2128   -31428.2702  0.0001 -2.7960

siesta: E_KS(eV) =           -31428.2124

siesta: E_KS - E_eggbox =    -31428.2124

siesta: Atomic forces (eV/Ang):
----------------------------------------
   Tot   -0.007584    0.005620    0.007010
----------------------------------------
   Max    1.332009
   Res    0.621226    sqrt( Sum f_i^2 / 3N )
----------------------------------------
   Max    1.332009    constrained

Stress-tensor-Voigt (kbar):        4.16        4.33        3.89        0.00        0.03        0.00
(Free)E + p*V (eV/cell)   -31461.8415
Target enthalpy (eV/cell)   -31428.2698
 
mulliken: Atomic and Orbital Populations:

Species: Ag                  
Atom  Qatom  Qorb
               5s      5s      4dxy    4dyz    4dz2    4dxz    4dx2-y2 4dxy    
               4dyz    4dz2    4dxz    4dx2-y2 5Ppy    5Ppz    5Ppx    
   1 11.077   0.406   0.410   1.869   1.907   1.896   1.907   1.869   0.033
              0.015   0.025   0.014   0.033   0.249   0.194   0.249
   2 10.985   0.648   0.280   1.942   1.943   1.926   1.973   1.910  -0.003
             -0.006  -0.003  -0.016   0.000   0.182   0.102   0.108
   3 10.985   0.648   0.280   1.942   1.943   1.926   1.973   1.910  -0.003
             -0.006  -0.003  -0.016   0.000   0.182   0.102   0.108
   4 10.982   0.644   0.280   1.919   1.986   1.927   1.929   1.933  -0.001
             -0.020  -0.003  -0.002  -0.002   0.113   0.102   0.177
   5 10.986   0.653   0.275   1.917   1.944   1.926   1.971   1.934   0.000
             -0.007  -0.003  -0.015  -0.002   0.141   0.101   0.151
   6 10.982   0.644   0.280   1.919   1.986   1.927   1.929   1.933  -0.001
             -0.020  -0.003  -0.002  -0.002   0.113   0.102   0.177
   7 10.986   0.653   0.275   1.917   1.944   1.926   1.971   1.934   0.000
             -0.007  -0.003  -0.015  -0.002   0.141   0.101   0.151
   8 10.996   0.452   0.346   1.900   1.925   1.922   1.914   1.887   0.013
              0.009   0.014   0.008   0.022   0.176   0.169   0.238
   9 10.980   0.774   0.226   1.924   1.990   1.940   1.943   1.984  -0.007
             -0.025  -0.015  -0.011  -0.025   0.094   0.081   0.107
  10 10.997   0.454   0.348   1.888   1.917   1.922   1.923   1.896   0.020
              0.009   0.014   0.009   0.016   0.221   0.169   0.192
  11 10.997   0.454   0.348   1.888   1.917   1.922   1.923   1.896   0.020
              0.009   0.014   0.009   0.016   0.221   0.169   0.192
  12 10.996   0.794   0.233   1.969   1.955   1.939   1.979   1.939  -0.021
             -0.015  -0.016  -0.022  -0.012   0.102   0.080   0.091
  13 10.996   0.794   0.233   1.969   1.955   1.939   1.979   1.939  -0.021
             -0.015  -0.016  -0.022  -0.012   0.102   0.080   0.091
  14 11.044   0.535   0.362   1.882   1.914   1.907   1.916   1.893   0.021
              0.011   0.015   0.012   0.017   0.206   0.163   0.192
  15 11.044   0.535   0.362   1.882   1.914   1.907   1.916   1.893   0.021
              0.011   0.015   0.012   0.017   0.206   0.163   0.192
  16 11.045   0.537   0.363   1.898   1.916   1.907   1.913   1.878   0.014
              0.012   0.015   0.010   0.023   0.181   0.164   0.214
  17 10.916   0.663   0.238   1.930   1.991   1.953   1.936   1.987  -0.008
             -0.025  -0.014  -0.010  -0.024   0.091   0.098   0.110
  18 10.906   0.643   0.254   1.973   1.950   1.954   1.977   1.945  -0.020
             -0.014  -0.014  -0.021  -0.012   0.102   0.098   0.091
  19 10.906   0.644   0.254   1.973   1.950   1.954   1.977   1.945  -0.020
             -0.014  -0.014  -0.021  -0.012   0.102   0.098   0.091
  20 11.045   0.536   0.362   1.925   1.877   1.880   1.927   1.902   0.010
              0.023   0.020   0.008   0.014   0.208   0.211   0.141
  21 11.045   0.536   0.362   1.925   1.877   1.880   1.927   1.902   0.010
              0.023   0.020   0.008   0.014   0.208   0.211   0.141
  22 11.046   0.539   0.357   1.909   1.914   1.879   1.889   1.919   0.013
              0.012   0.020   0.020   0.011   0.159   0.212   0.192
  23 11.044   0.535   0.363   1.908   1.914   1.880   1.890   1.919   0.013
              0.012   0.020   0.020   0.011   0.154   0.212   0.193
  24 11.046   0.539   0.357   1.909   1.914   1.879   1.889   1.919   0.013
              0.012   0.020   0.020   0.011   0.159   0.212   0.192
  25 11.044   0.535   0.363   1.908   1.914   1.880   1.890   1.919   0.013
              0.012   0.020   0.020   0.011   0.154   0.212   0.193
  26 11.078   0.172   0.552   1.886   1.892   1.880   1.892   1.885   0.029
              0.028   0.030   0.028   0.029   0.258   0.258   0.258
  27 11.047   0.541   0.360   1.898   1.917   1.908   1.913   1.876   0.014
              0.012   0.015   0.011   0.023   0.181   0.165   0.214
  28 10.902   0.637   0.255   1.931   1.991   1.954   1.937   1.987  -0.008
             -0.025  -0.015  -0.010  -0.024   0.081   0.099   0.112
  29 11.045   0.537   0.361   1.882   1.914   1.907   1.916   1.892   0.021
              0.011   0.015   0.012   0.017   0.206   0.164   0.192
  30 11.045   0.537   0.361   1.882   1.914   1.907   1.916   1.892   0.021
              0.011   0.015   0.012   0.017   0.206   0.164   0.192
  31 10.903   0.638   0.256   1.973   1.950   1.954   1.977   1.945  -0.020
             -0.014  -0.014  -0.021  -0.012   0.102   0.098   0.091
  32 10.903   0.638   0.256   1.973   1.950   1.954   1.977   1.945  -0.020
             -0.014  -0.014  -0.021  -0.012   0.102   0.098   0.091

mulliken: Qtot =      352.000

* Maximum dynamic memory allocated =    80 MB

siesta: Program's energy decomposition (eV):
siesta: Ebs     =     -2137.947078
siesta: Eions   =     35531.607510
siesta: Ena     =       314.489205
siesta: Ekin    =     25877.944241
siesta: Enl     =    -17203.600471
siesta: DEna    =       115.064746
siesta: DUscf   =        21.860434
siesta: DUext   =         0.000000
siesta: Exc     =     -5022.363046
siesta: eta*DQ  =         0.000000
siesta: Emadel  =         0.000000
siesta: Emeta   =         0.000000
siesta: Emolmec =         0.000000
siesta: Ekinion =         0.000000
siesta: Eharris =    -31428.211538
siesta: Etot    =    -31428.212401
siesta: FreeEng =    -31428.269774

siesta: Final energy (eV):
siesta:  Band Struct. =   -2137.947078
siesta:       Kinetic =   25877.944241
siesta:       Hartree =   85089.080716
siesta:    Ext. field =       0.000000
siesta:   Exch.-corr. =   -5022.363046
siesta:  Ion-electron = -191674.720498
siesta:       Ion-ion =   54301.846187
siesta:       Ekinion =       0.000000
siesta:         Total =  -31428.212401

siesta: Atomic forces (eV/Ang):
siesta:      1   -0.006177   -0.002529    0.205648
siesta:      2   -0.990920   -0.149767    0.865316
siesta:      3    0.987354   -0.148778    0.863056
siesta:      4   -0.638017   -0.797991    0.864636
siesta:      5   -0.376400    0.885945    0.841144
siesta:      6    0.643460   -0.798492    0.863607
siesta:      7    0.381179    0.888548    0.839257
siesta:      8   -0.003988   -0.362419   -0.846266
siesta:      9    0.001873    0.943923   -0.979872
siesta:     10   -0.332020    0.184986   -0.850535
siesta:     11    0.331219    0.187763   -0.852181
siesta:     12   -0.885045   -0.510889   -0.932787
siesta:     13    0.882890   -0.512662   -0.932561
siesta:     14   -0.261219   -0.145898    0.423686
siesta:     15    0.270450   -0.146658    0.423820
siesta:     16   -0.005407    0.304873    0.418351
siesta:     17   -0.002563   -1.216167    0.943371
siesta:     18    1.120649    0.661740    0.918781
siesta:     19   -1.122275    0.662665    0.918092
siesta:     20   -0.512403   -0.000613   -0.001733
siesta:     21    0.511162   -0.000723   -0.000539
siesta:     22   -0.273482   -0.427423    0.007474
siesta:     23   -0.260455    0.468346    0.004478
siesta:     24    0.281994   -0.423791    0.004403
siesta:     25    0.261460    0.467990    0.006341
siesta:     26   -0.005295    0.004131   -0.009260
siesta:     27   -0.004935   -0.289360   -0.416432
siesta:     28   -0.002129    1.332009   -0.909236
siesta:     29   -0.252282    0.141648   -0.416453
siesta:     30    0.257142    0.140966   -0.419366
siesta:     31   -1.131509   -0.667836   -0.918785
siesta:     32    1.128105   -0.667915   -0.918447
siesta: ----------------------------------------
siesta:    Tot   -0.007584    0.005620    0.007010

siesta: Stress tensor (static) (eV/Ang**3):
siesta:     0.002595   -0.000002    0.000000
siesta:    -0.000002    0.002700    0.000018
siesta:     0.000000    0.000018    0.002428

siesta: Cell volume =      13041.289483 Ang**3

siesta: Pressure (static):
siesta:                Solid            Molecule  Units
siesta:          -0.00002804         -0.00000002  Ry/Bohr**3
siesta:          -0.00257427         -0.00000220  eV/Ang**3
siesta:          -4.12447220         -0.00353126  kBar
(Free)E+ p_basis*V_orbitals  =      -31405.399563
(Free)Eharris+ p_basis*V_orbitals  =      -31405.398268

siesta: Electric dipole (a.u.)  =   -0.000016    0.929737    0.103298
siesta: Electric dipole (Debye) =   -0.000041    2.363158    0.262557

Optical: Performing optical calculation: 

Optical: Polarization type       = polarized   
Optical: Minimum of energy range =   0.0001 Ry 
Optical: Maximum of energy range =   7.3498 Ry 
Optical: Gaussian broadening     =   0.0037 Ry 
Optical: Scissor operator        =   0.0000 Ry 
Optical: Number of bands         =      480
Optical: BZ mesh dimensions      =    1   1   1

Optical: electric field direction
Optical:      0.00000     1.00000     0.00000

Optical: Checking f-sum rule  0.368388
Optical: For insulators and closed shell systems
Optical: this number should be close to 1 if an enough
Optical: number of unoccupied bands have been included

* Maximum dynamic memory allocated : Node    0 =    68 MB
* Maximum dynamic memory allocated : Node    1 =    68 MB
* Maximum dynamic memory allocated : Node    2 =    68 MB
* Maximum dynamic memory allocated : Node    3 =    68 MB
* Maximum dynamic memory allocated : Node    4 =    69 MB
* Maximum dynamic memory allocated : Node    5 =    69 MB
* Maximum dynamic memory allocated : Node    6 =    68 MB
* Maximum dynamic memory allocated : Node    7 =    68 MB
* Maximum dynamic memory allocated : Node    8 =    68 MB
* Maximum dynamic memory allocated : Node    9 =    68 MB
* Maximum dynamic memory allocated : Node   10 =    68 MB
* Maximum dynamic memory allocated : Node   11 =    69 MB
* Maximum dynamic memory allocated : Node   12 =    73 MB
* Maximum dynamic memory allocated : Node   13 =    73 MB
* Maximum dynamic memory allocated : Node   14 =    70 MB
* Maximum dynamic memory allocated : Node   15 =    68 MB
* Maximum dynamic memory allocated : Node   16 =    68 MB
* Maximum dynamic memory allocated : Node   17 =    68 MB
* Maximum dynamic memory allocated : Node   18 =    68 MB
* Maximum dynamic memory allocated : Node   19 =    71 MB
* Maximum dynamic memory allocated : Node   20 =    79 MB
* Maximum dynamic memory allocated : Node   21 =    80 MB
* Maximum dynamic memory allocated : Node   22 =    73 MB
* Maximum dynamic memory allocated : Node   23 =    68 MB
* Maximum dynamic memory allocated : Node   24 =    68 MB
* Maximum dynamic memory allocated : Node   25 =    68 MB
* Maximum dynamic memory allocated : Node   26 =    68 MB
* Maximum dynamic memory allocated : Node   27 =    70 MB
* Maximum dynamic memory allocated : Node   28 =    75 MB
* Maximum dynamic memory allocated : Node   29 =    77 MB
* Maximum dynamic memory allocated : Node   30 =    72 MB
* Maximum dynamic memory allocated : Node   31 =    69 MB
* Maximum dynamic memory allocated : Node   32 =    68 MB
* Maximum dynamic memory allocated : Node   33 =    68 MB
* Maximum dynamic memory allocated : Node   34 =    68 MB
* Maximum dynamic memory allocated : Node   35 =    68 MB
* Maximum dynamic memory allocated : Node   36 =    70 MB
* Maximum dynamic memory allocated : Node   37 =    70 MB
* Maximum dynamic memory allocated : Node   38 =    68 MB
* Maximum dynamic memory allocated : Node   39 =    68 MB
* Maximum dynamic memory allocated : Node   40 =    68 MB
* Maximum dynamic memory allocated : Node   41 =    68 MB
* Maximum dynamic memory allocated : Node   42 =    68 MB
* Maximum dynamic memory allocated : Node   43 =    68 MB
* Maximum dynamic memory allocated : Node   44 =    73 MB
* Maximum dynamic memory allocated : Node   45 =    74 MB
* Maximum dynamic memory allocated : Node   46 =    69 MB
* Maximum dynamic memory allocated : Node   47 =    68 MB
* Maximum dynamic memory allocated : Node   48 =    68 MB
* Maximum dynamic memory allocated : Node   49 =    68 MB
* Maximum dynamic memory allocated : Node   50 =    68 MB
* Maximum dynamic memory allocated : Node   51 =    68 MB
* Maximum dynamic memory allocated : Node   52 =    75 MB
* Maximum dynamic memory allocated : Node   53 =    77 MB
* Maximum dynamic memory allocated : Node   54 =    70 MB
* Maximum dynamic memory allocated : Node   55 =    68 MB
* Maximum dynamic memory allocated : Node   56 =    68 MB
* Maximum dynamic memory allocated : Node   57 =    68 MB
* Maximum dynamic memory allocated : Node   58 =    68 MB
* Maximum dynamic memory allocated : Node   59 =    68 MB
* Maximum dynamic memory allocated : Node   60 =    70 MB
* Maximum dynamic memory allocated : Node   61 =    71 MB
* Maximum dynamic memory allocated : Node   62 =    67 MB
* Maximum dynamic memory allocated : Node   63 =    66 MB

* Maximum memory occured during redistribXY                   

timer: CPU execution times:
timer:  Routine       Calls   Time/call    Tot.time        %
timer:  siesta            1   11486.131   11486.131   100.00
timer:  Setup             1      60.924      60.924     0.53
timer:  bands             1       0.013       0.013     0.00
timer:  writewave         1       0.058       0.058     0.00
timer:  KSV_init          1       0.006       0.006     0.00
timer:  IterMD            1   11010.187   11010.187    95.86
timer:  hsparse           1       0.061       0.061     0.00
timer:  overlap           1      14.043      14.043     0.12
timer:  IterSCF          27     386.556   10437.002    90.87
timer:  kinefsm           2       6.633      13.267     0.12
timer:  nlefsm            2      25.142      50.283     0.44
timer:  DHSCF            28     361.583   10124.326    88.14
timer:  DHSCF1            1      49.640      49.640     0.43
timer:  DHSCF2            1     231.482     231.482     2.02
timer:  REORD           226       0.127      28.632     0.25
timer:  POISON           29      46.978    1362.355    11.86
timer:  DHSCF3           28     349.645    9790.065    85.23
timer:  rhoofd           28      17.527     490.770     4.27
timer:  cellXC           28      45.315    1268.822    11.05
timer:  vmat             28     110.999    3107.963    27.06
timer:  MolMec            2       0.001       0.002     0.00
timer:  diagon           27      15.850     427.943     3.73
timer:  r-eigvec         27      15.431     416.635     3.63
timer:  r-buildHS        27       0.003       0.086     0.00
timer:  rdiag            28      17.449     488.577     4.25
timer:  rdiag1           28       0.349       9.772     0.09
timer:  rdiag2           28       3.212      89.932     0.78
timer:  rdiag3           28      10.624     297.484     2.59
timer:  rdiag4           28       0.329       9.202     0.08
timer:  r-buildD         27       0.396      10.683     0.09
timer:  DHSCF4            1      39.997      39.997     0.35
timer:  dfscf             1      36.768      36.768     0.32
timer:  overfsm           1       0.089       0.089     0.00
timer:  optical           1     393.077     393.077     3.42
timer:  phirphiopt        1     120.036     120.036     1.05
timer:  transrate         1     184.158     184.158     1.60
  

elaps: ELAPSED times:
elaps:  Routine       Calls   Time/call    Tot.time        %
elaps:  siesta            1     179.581     179.581   100.00
elaps:  Setup             1       0.859       0.859     0.48
elaps:  bands             1       0.000       0.000     0.00
elaps:  writewave         1       0.001       0.001     0.00
elaps:  KSV_init          1       0.000       0.000     0.00
elaps:  IterMD            1     172.216     172.216    95.90
elaps:  hsparse           1       0.001       0.001     0.00
elaps:  overlap           1       0.234       0.234     0.13
elaps:  IterSCF          27       6.046     163.229    90.89
elaps:  kinefsm           2       0.111       0.222     0.12
elaps:  nlefsm            2       0.403       0.805     0.45
elaps:  DHSCF            28       5.608     157.028    87.44
elaps:  DHSCF1            1       0.759       0.759     0.42
elaps:  DHSCF2            1       3.611       3.611     2.01
elaps:  REORD           226       0.001       0.323     0.18
elaps:  POISON           29       0.700      20.302    11.30
elaps:  DHSCF3           28       5.437     152.238    84.77
elaps:  rhoofd           28       0.025       0.692     0.39
elaps:  cellXC           28       0.718      20.095    11.19
elaps:  vmat             28       1.705      47.726    26.58
elaps:  MolMec            2       0.000       0.000     0.00
elaps:  diagon           27       0.285       7.691     4.28
elaps:  r-eigvec         27       0.278       7.514     4.18
elaps:  r-buildHS        27       0.000       0.001     0.00
elaps:  rdiag            28       0.301       8.430     4.69
elaps:  rdiag1           28       0.006       0.155     0.09
elaps:  rdiag2           28       0.050       1.407     0.78
elaps:  rdiag3           28       0.167       4.676     2.60
elaps:  rdiag4           28       0.005       0.145     0.08
elaps:  r-buildD         27       0.006       0.168     0.09
elaps:  DHSCF4            1       0.287       0.287     0.16
elaps:  dfscf             1       0.275       0.275     0.15
elaps:  overfsm           1       0.002       0.002     0.00
elaps:  optical           1       6.348       6.348     3.53
elaps:  phirphiopt        1       2.086       2.086     1.16
elaps:  transrate         1       2.879       2.879     1.60
  
>> End of run:  10-MAY-2012  18:06:15
